# vtk DataFile Version 2.0
Ocean circulation t=20
ASCII
DATASET STRUCTURED_POINTS
DIMENSIONS 200 200 1
ORIGIN 0 0 0
SPACING 1 1 1
POINT_DATA 40000
SCALARS temperature double 1
LOOKUP_TABLE default
14.817778302089389
22.221385395252483
21.245291262054508
15.308775850018288
20.73827014053438
18.33861599605973
11.892757194423238
17.234268259311634
17.158515644582344
21.154219659386612
21.57629807412249
18.6891058654304
21.66559888606351
12.362817844375598
12.686375012081372
13.834070694323415
17.57039421977177
18.120615354765917
11.191160213572392
13.622022346932578
23.06241895713964
22.723303175173204
19.397038573200888
18.850451932879103
13.88383005753216
14.93588527891103
24.37397142385134
24.369688258874408
24.258531033681624
12.301143172057085
15.694953280546114
20.085636134509663
16.71007310153204
17.877997806348006
16.167320412051915
20.97210831430884
17.689661043713933
15.166412377979958
23.024336168666764
20.41954692196833
14.833270986564758
13.177428038062896
14.586692945697287
12.821340213772327
17.679446323505687
14.830782594506518
19.84572206977106
14.509813578567634
16.74902479934248
17.723277235208442
23.634880718432303
23.07857898906562
20.274568923774968
20.28029258610017
14.469066741324863
23.34298181625956
25.256575404477772
17.421869825532944
19.517488128965905
12.579119391090247
18.8213006914701
16.737738696178724
16.33981008107377
15.751898165892037
22.73144885654278
19.17434033101569
13.989085547065052
19.026571009185435
12.570750227203884
20.16459094742194
18.681554851343716
18.19637944360742
16.916137213182736
17.120270822816916
15.159851659430435
16.515833999977524
18.71521006567094
19.841585946240357
20.168900567229898
23.09476863800496
16.209606021590258
19.251551021666348
17.332278336086457
23.103011044408692
25.59152122388135
22.207064524342005
16.160428948651507
20.195916520941108
15.328263395475773
23.130194523615653
21.497832846472193
15.840225561848742
14.6272177245927
20.07384422319634
14.278220829180826
12.131010316159928
11.915726554194746
15.9995553167565
19.760583411444777
15.702778846005184
19.257781344536866
14.348920824035853
18.59517408836203
17.377838944354476
14.084861217996822
13.105816935991646
12.550277605878806
13.207253131974447
22.146547180906403
20.397097914442174
15.934977412724692
21.102089836545474
16.37682514922685
13.128128124730118
16.459912776794695
15.935773448471446
21.66701136810059
17.454114764274784
13.40596191021438
21.505727232030342
21.92083088238146
15.426341842492468
16.634982875724006
17.85031850370234
18.67316947753236
14.283140350314708
11.908435189598011
19.212211080479015
16.004440815483445
13.965135180208977
19.11784196390194
14.929465328819063
13.611798025845616
15.381681149860306
10.09674691633709
10.581525599369314
10.923965523500142
16.990439475191376
17.392490442428517
14.716441828793677
14.816810265685508
19.68762651123275
15.567215023948716
17.70245786355298
13.402041245671162
10.454880231152993
13.714435131937625
19.96065474396087
15.250750294750755
14.839334517424257
17.89247893896622
12.20080713741341
12.915229044353591
17.425550887211863
21.292531007387367
18.620034379111324
20.9115947081631
19.044514649381707
21.181636324337905
16.34230059958334
17.899161607503732
21.680790554112242
19.1116009648959
19.32407662584104
16.27975497148648
23.305001200517754
22.346180672818548
13.932855673707135
17.901288837892224
19.51988784055324
14.727823794119114
17.360346497847793
14.97513883486936
20.899582412091274
14.927893234573745
17.802094060626416
13.87191370393822
18.44889806898352
20.506260739731424
12.645715569567487
11.90504560030716
19.92760980664537
24.835111265151156
22.98471280947285
20.343064046296753
16.873262468732197
19.873676149829244
14.082414083302801
9.9032210488006
16.777171140945796
14.914005394420437
24.256919059583808
21.246710368270282
19.870795240546183
25.539838228935007
24.898338401298798
20.704676067517205
19.15459425698931
16.674644952544185
16.3719098524263
20.45595784208353
23.228056955406974
23.82100885974603
19.370249607093374
23.50101024900336
20.534860737766586
11.122689150386748
14.935764666980264
17.25786348659751
16.208561057935828
17.558668850086914
17.866493917130022
18.424699632116923
14.605646387918412
11.957967733319002
15.345685207645033
12.461181854158234
13.577235487363907
18.47030702981479
20.606137728256254
21.29095391089295
17.026924558228668
16.900608076056248
13.552358436079386
12.083956698978895
21.70036378284887
23.353080608203587
19.085620911815145
21.823846829440917
11.464040068905819
15.200940049608691
19.856786739427463
23.23464462478417
19.329054927928357
16.843729870661285
14.212583976644954
16.27088882438294
20.809235449235505
21.03009709704486
21.80022756965373
19.245526134929417
14.0305797952367
20.452719434317082
16.678845267236593
16.290984119711386
22.557424593780688
24.48747615690089
18.38445001263582
22.66637639554786
21.600029193233407
21.999802312736186
24.722081079997274
21.321697646302873
22.67868990037745
16.218116339619186
21.211384212267554
20.889476514687882
14.398912138036467
20.78926507107668
16.40147286311665
23.92949327955651
22.500417723968944
19.163882604518978
14.855578453747718
19.250449351315407
18.765081737310343
11.497663056490488
19.420869744477617
14.906473698951652
18.394265802061206
15.687125382473983
17.681581593486598
21.410237043307745
19.016734797691072
22.445651218060764
15.583338754709676
17.945626234314222
21.343289498141484
20.792255089364993
20.97568644293131
14.280880901284602
13.019611836429078
15.831057109994207
17.074122558304136
23.116424975232437
15.83538667892342
15.25354555816152
20.85468636174295
14.04513226034894
19.494586572659774
18.538477490566304
22.105450556260916
25.19845327468465
25.494803832221823
15.870024318307385
16.886450672820086
13.804284247905272
22.105699412608928
21.84195260613464
19.370939178435183
18.197862426188607
16.579235650967217
19.691557045452804
18.948636055382966
23.280446924795623
18.484820418939233
15.244583777709513
13.862843886300459
17.610251138859507
21.23799528451308
13.834486798003322
17.788761566540767
21.056956187257832
23.357561436064916
19.686017350750667
14.110893003217697
19.802036992705652
19.384819371984246
16.497432159340867
13.606257228938503
17.91843532152793
20.36134559906859
18.01498152261774
22.87361098667885
19.472606221376623
12.969719757890177
11.519110148753303
11.574568033165722
12.94409738114781
11.766116085410333
17.37762340906092
14.701334997678993
16.81323582640768
17.310045776018725
15.087040354013713
18.452050691789275
14.791847468068772
15.858243095142432
22.898619110282773
21.68317602426446
20.763033931076475
13.756264019604924
11.446733072028357
15.725923404822403
12.74303525214926
19.273908675805863
19.437815493809417
22.991418584918936
19.940970332745746
19.457063379923895
19.80714961566858
22.658672307720707
17.036836601195198
14.371393887118721
21.76721043035783
13.702952586287452
19.34077993004052
12.642654243855754
15.134709487704232
12.710971398093742
17.121286187312464
20.251420871119137
19.537581768234528
19.65088969611304
23.08531441080956
24.399755005585504
17.266249206585925
15.282229525876081
10.916449765047533
12.742169545604977
20.751404684852268
16.578488196565175
15.810079819864459
22.901796463110163
20.6034963320989
21.12822069490385
16.01727898434061
16.50062529861175
21.89316931382628
12.822246054068588
13.131638928156113
20.02884454410226
20.681081267311768
15.67151936835462
14.7730588103822
16.563456429280038
14.747607699142442
12.28627755263606
10.260566349828254
18.091317635280138
12.976650119296544
21.308607265370085
16.25142145281318
24.333582648253103
23.57442567549085
25.89007935728732
24.426262295875656
20.964194960787147
19.839374676486262
20.72076425815177
13.269484706740704
24.10898288501849
21.715965082677464
16.610312967408795
23.884649307276142
19.580882163911642
15.659901562366812
18.018246274094114
19.667163616438312
21.919668445953878
19.78288259046506
21.950128930823546
14.19856635185192
11.94149375329533
18.821849163705323
20.514675954084574
22.043242034670136
19.460379341608046
21.477101349077987
22.750924092951514
22.490130550668066
15.2959126482675
19.716953139337328
14.809263262646784
18.026438071242655
16.40125131714309
22.363036291253547
21.829647404729098
14.20818301158328
13.017175965212704
15.790850637150307
18.306199193225684
25.188484224591303
25.317475753500993
21.90619709953836
16.431369272100735
15.773798307075058
16.423642388417363
21.098572642122278
23.96564874949938
20.899883549970806
21.597532196376267
18.172741623468898
14.534236674306312
18.109499653032454
24.67300270697377
24.86745680438689
21.08397457176141
21.617975820095293
18.416870355556515
23.747818653791974
21.57799219362686
16.43563163234513
16.78155220413497
15.290479327210287
19.380746916161634
17.64128234093702
16.227026337659236
20.214429033524528
19.281903316109307
19.09811825613262
14.942433620261
17.187328419457206
13.126418325020223
11.364355489915813
13.50033079888987
10.839657169538928
14.311645895389612
19.00174025230779
18.855074026067914
11.884287272456191
12.741817882820353
15.135227515007687
14.700450413789174
22.50725951484281
20.957616868774238
18.001504128142916
14.032313336250919
17.7706508053938
21.11673669162289
20.066819234888154
14.41499574612535
19.677948096625233
20.41372551851805
17.43530161122987
16.43720706614593
20.807999785428848
22.323193080281055
17.490740244236754
13.424217830996609
12.695108247450543
20.06662066830606
24.710152034159446
26.806230464119274
23.796983075480583
21.490472671196002
13.767290484304187
21.513977067764436
15.82765608430031
16.060918333268106
20.782321025701506
16.95656946520348
18.875579526938623
22.767541570295432
26.503843550804202
24.859976488732734
20.594270598139396
17.196526012316674
21.001382639697276
14.313702093131916
13.451443669241625
20.078257282448025
25.581517654660452
22.170425557884425
18.91035686987131
13.004329965011065
19.57050549651875
13.239879943517655
12.747108876867644
17.030618828285657
21.06757659886761
20.093327119825677
15.223345660144306
14.095289639396627
10.052295850864649
10.471143400716032
8.71257438446979
9.87207091949165
16.939012664421917
11.443687170871973
18.32471598758363
16.222037356931406
13.796440494358796
21.565521085827687
18.812698017744378
14.87713731564001
12.953321486612944
11.7536989378007
16.255382029110606
15.317759750303196
14.573783224326137
16.648339931212405
17.948268653629004
15.521426168572535
17.809170807267712
13.51465334981303
14.219220149667759
16.158843789111337
21.142097497721565
14.60841089441691
18.657294996125785
21.788813397255147
16.895849129029067
14.493153050063007
23.6941328147892
15.71436393398223
14.569006882475438
13.707808171195941
16.74603642652511
15.94514653326564
13.726641505667436
12.748890867441414
14.666178808925055
22.200757362759187
17.17519258855221
19.988940092589043
15.346178197497307
12.433142729043482
10.261942467913535
16.93439070996967
24.016299067351987
24.027031775613644
15.987018606373372
14.960222670433106
15.409673105795306
22.324335150912685
21.694999928014564
15.56653900443327
15.55384110575396
11.604808306320987
10.921825637315983
20.87924991698886
19.540846116069165
21.960581803499007
15.106608843580627
16.85924970657548
17.34564060195064
17.129386489692536
16.01823128268327
17.71979405327655
15.880201730593182
17.67732243906616
16.160071860281835
24.35457463779421
19.627747195091363
19.71202961756017
17.04375055656315
14.152574807133925
12.884314779863184
11.802804096206524
11.144712249589226
24.086638338052573
23.748164500631603
22.75626166046524
23.861146190251517
23.46135419784053
20.251962765362617
16.31898999450317
19.159553670140546
22.461973976598568
22.64444204658422
22.60313551424294
13.351076081684372
18.2971141490435
20.739098356653557
24.436474918404183
23.905916076489426
22.46430743061677
17.574168526690666
20.307418334133608
14.073118184922578
11.647588728040244
18.79575606151919
19.019500972454953
19.433882851133212
12.578957935616398
13.600381890004995
13.9088322940122
19.238945038842704
15.857435750056226
10.853142622804434
16.130776730779548
18.49026238273707
17.644390683571423
13.653605145136325
20.439400488541317
21.23159443375902
17.741874540834782
20.743405018149083
23.437434378019013
23.103651529603752
23.398835222850284
17.42453147960667
17.81127988875268
20.203237096474595
16.726542180508655
16.79629291022766
20.945454436732966
22.143267905196076
21.258893973445
23.536902646215115
15.837623285970702
11.739406406460168
14.438966646413304
18.137616014997075
18.205611082509215
14.457025876829091
18.6789878698509
14.848352031819061
16.857965894099692
15.316783788630826
14.830741294193059
21.05595305865176
15.957104874195304
10.743943662853914
14.112300654915897
18.047056695727616
13.807962991268171
10.608333342861389
13.2866739026143
17.49782541943978
11.51492132099207
19.578147038384344
20.352311877709223
17.1328220218044
13.745952718451026
18.981886119967616
16.615030805465352
20.528364486879607
23.261107090821348
21.059339704549625
19.950582426367323
18.8526030943378
19.385738219388173
13.363609007406962
15.709086653937305
22.00547697035274
22.48833251978052
13.880117691724253
12.773263188179914
17.03399215915822
18.920686726729727
15.14159835869106
19.899219468382448
23.528649503578766
17.754737573545828
16.26024322896012
22.84535241277311
13.138813962160853
14.741499952570523
18.88700745040912
23.01555014648308
16.720102267098934
19.249210995641896
22.128436799845296
25.970989931677465
24.486441029362783
14.503883246014821
17.578276581439134
16.634398408898406
12.042960224615253
12.347751077569672
21.830085901312227
18.369661779103605
16.401784604334665
15.882335008034197
13.004209518547466
9.36530798461785
10.8208623149322
21.92687966792577
21.002610818002786
22.008735664740215
18.549276471452924
15.824770147939809
13.36441660236598
18.167278930269347
11.846778042721922
13.673620245812016
19.497872337188383
10.961605649296116
17.776064954964617
10.382764230428146
9.758666507249286
17.164144078272606
19.613161976222667
15.760556681145395
14.19185395822628
15.301161472606303
18.61038187035966
22.005446763579897
17.30758176785766
16.164470559564478
19.862359379711396
21.627912362061615
20.434575118084165
19.215824485657965
11.739694683086217
17.722928534976102
15.47704312042025
17.248086945370122
15.798963735058003
14.27909660822454
13.508585866740079
18.504013829996648
22.25307682781568
17.311269355519187
18.441644443385016
12.128753992186796
19.631968780075148
13.756935049391284
11.495756258268791
14.156473775399594
14.034604745400731
21.072566543268586
20.83461648732214
22.10638341386686
21.01481819863605
18.374245098996976
12.515454095002452
15.599738840425799
23.42092899756618
25.69486778602955
23.289346218794662
20.94623037764804
22.776804062796177
21.86952891930956
20.07612209373848
11.267219056082391
13.202068761676172
13.480064884362863
10.080328762025367
17.625786835491873
16.576910204839848
23.489446928718895
16.80976238823242
12.11568897498681
12.875843420831455
11.90044816181884
22.49288321829876
22.006922551092245
15.469110463151345
11.769419381101525
13.286598417488658
20.666030547061265
22.032274445557277
14.917206978765577
12.509998637405312
21.100356068836223
16.974988227270053
9.828095978261999
14.372706423827703
23.863525701204253
24.831577398656727
18.80255465190754
18.292248575711326
17.36247608937112
19.66321757601856
9.836732082560536
9.998832633160646
13.511612556446572
20.908995198263725
17.58790625117755
13.566905741227863
17.785870853080517
20.889316428572364
18.62281092419488
20.683643092509413
17.831528493086463
19.444339439538087
17.799312541838997
12.09013317878082
11.68436546105379
19.089729090914727
21.053737353261365
15.522209977065055
20.008930405225914
18.20420400712205
21.368579090631144
21.169005800192597
21.34162175422807
14.566539770020183
20.786965106420897
19.647898390783585
16.628646976599523
18.444303446516912
22.705064726442558
22.71761670441075
24.171262866166476
24.126615575691964
20.182072460246232
23.842295880358776
22.068754988408582
11.635453478639702
13.665003441494312
14.739503555824342
17.090344334292308
19.040046398037198
19.36721696165319
21.60812950992679
20.54021726927349
15.237986189308522
11.401015428936592
18.49253353079229
17.628541355982957
24.555730652237173
22.396723948815048
21.62148884668442
22.934840730984412
18.693330330982967
17.354574960259985
13.08745109236414
20.62112429384156
22.267049650484996
17.66263369010922
14.371253341277708
19.09569841144959
15.3987178926085
18.005535187496
13.265163469353617
15.134059192466346
19.65917021938117
11.676101736193198
14.787386744965806
17.871750059396295
19.63775655989363
17.35247821025736
13.510484600864016
12.280234729322743
19.95604674030595
22.21384373692334
15.145988153795921
11.399735282122187
10.858245764098005
13.955977843257243
15.953322716870893
12.217521187623017
17.168817657408177
21.231302480497266
16.51745756857392
11.682703974709392
16.169138467572008
15.386516033717442
12.011446646960414
12.22381720570232
21.22043979900674
15.659318282047598
19.68303593085962
24.719393560567273
16.762461372631982
18.178631547254525
22.39857374449266
24.533812168304735
21.481218120090556
19.94332277709232
21.202421398292543
20.588011933947193
23.60801687507307
15.606857093296641
16.35826317274783
22.75431251489266
16.698549404527153
14.463477142680068
15.44477422433241
12.896869532025756
17.617880151527583
22.880627875253637
15.616243599612226
12.171072740842028
14.651002610338237
20.613651233718958
17.470814479397518
17.696306952406832
21.236539169438934
21.822632219272435
20.044448515318674
18.161317406586583
19.726339415476968
21.59385416657802
21.508221634057534
10.245473358684354
9.62902602988112
11.217325413662657
12.584271806594902
18.44169651866814
14.334373065795104
19.781929293750352
22.712209788607257
24.494519064551742
23.269643564764078
20.47485704847841
22.62785618912769
21.981822110005307
13.139864416878611
14.355471278961918
22.488314651342357
14.199880851139978
12.033655969398184
14.929001787108005
19.599094020756414
11.975922806084052
12.113882652328439
11.189270880037117
18.253160106101966
18.384755277145914
13.437809785066664
19.788160188210156
13.873360090042697
13.728443360910397
23.464204469250618
22.235740973741937
21.097348109786516
19.58704263405135
13.385308277630509
17.463570514948902
21.624046961129412
19.654665310803946
21.98248429894058
19.64649809803574
16.02286346755253
17.66906352990843
22.062781275752105
16.242108941575474
14.466572354351786
21.923852419837843
19.838439987485287
18.814385221845324
14.100207386655295
11.615193544765404
18.8943165589881
21.852952405895348
12.01458961707183
15.60912662274828
15.164934003870302
21.262749053167767
17.861803868906442
17.86561600141496
15.334648731359717
12.497979703587696
21.903444745769722
19.865322211287637
11.982303487651542
9.124735991548167
11.307789845083581
14.842250154008065
13.299052705009967
18.405813675746842
16.475021727211647
20.191441117617682
16.875160036342457
9.783911450762139
19.81877204773527
21.117544485023927
25.373517610755233
24.682417692940476
19.11296334087042
18.247072078100846
21.270283083219756
9.37996262653923
8.15549705325825
11.611063242115785
15.733339307618134
23.34841443426921
22.601913004141434
20.427785630716496
23.810629256608937
21.693432877042596
16.24943900682926
12.741741810117794
21.076898177602217
14.413453585094414
13.777240242039115
17.20661947374045
21.791550018863322
16.160437834585565
10.974165924694821
13.249643341440333
13.557394497844227
22.3412710397972
20.681278729415485
24.196421903077784
20.66891040348451
22.939028557993648
22.306354191902763
21.147121392417095
22.655943669466147
18.13902986225554
19.255050860315592
18.031204953017404
20.687053013129326
15.483444074090915
16.00634594464396
10.6129037392766
10.585659249060246
18.62705043456266
18.54031795003743
13.529160571323231
13.894958514913878
12.547948928857647
20.79221264157907
25.01853127068871
21.001749959473514
12.5741078288173
20.71556400136615
14.412760850931228
23.30186091542398
21.017072858466616
12.80158085884127
13.282286441588482
18.82628532845571
20.991074784184413
15.71857129897711
18.98136562565679
14.652865339227988
11.840069551262822
16.86900908712158
17.68443343541723
14.612537028354378
16.344089182780678
20.001582706055718
16.48826248397272
15.651959755199846
18.150582347065175
14.806617235449483
11.672905880172536
16.636681722018178
12.913082012834705
14.388749978107462
12.213885612212904
14.603915734541483
13.49747363369866
15.435724826079765
18.513464827740307
16.32264556832576
16.692411153529093
19.590836484876316
20.409145532876682
17.34926312376081
19.31034676595299
21.89509493576939
18.82349250615992
19.607819842471127
16.701019011748375
17.926015717892582
17.30879603968404
21.702522365602196
13.581624540364581
18.954980149382365
21.671089574941384
15.479518821975851
13.45751109619216
13.945202630757873
13.026136438160815
12.98300140787498
16.23621731987652
16.012096019219502
14.083197722731216
21.507659027020424
19.711494907085136
15.01816624014248
20.138333987159648
18.896724572310287
23.364997242921497
21.26668890092988
17.26626115978588
22.604144515365704
21.684062578745802
17.292210004658493
18.25347586401079
15.209949352732597
20.809828547915153
15.74485879146025
13.316162263649293
12.111789240699675
18.003292561129317
22.5354964972142
15.390125937947298
17.339952530374777
20.724014765386368
22.410687121852895
15.849130200442975
12.08189937184679
20.641902925020297
20.40583966275053
14.081347268132903
10.972413715851973
21.04336164121333
14.706012320674043
16.504810893547848
13.836485249351675
11.480218791981255
13.076225602255253
17.447018416931698
12.616237394577011
19.170290471547638
24.16515668754367
22.586828305894482
20.238352290442087
11.939571050154136
16.20064848440786
10.278651023763128
14.297715749006917
14.809815433768506
23.427103021486097
22.293336316198218
12.866894270875294
20.402757218942593
15.79438251247281
18.93520906966313
21.82610885474621
21.25435549902347
18.79866141435965
21.661754894529174
20.83740145198156
15.962357232055007
19.932778317615394
15.192852410547454
18.09735593581257
19.079074984236122
17.659191365990676
19.82386251624562
15.662240619809113
14.656217284585185
11.53325429803628
14.83067380941306
21.637579190742013
18.382027431508263
19.011077811071335
16.645691236467947
14.256454625701492
21.3071859992204
15.331301561839705
22.65518961924156
19.693502012780737
17.043734999436374
17.663604299682728
17.175799586811095
12.346242084177987
15.734804530294616
14.706345048326524
15.083640757314084
15.006001724326412
13.210294776967537
12.62045409975773
16.300362749127615
14.315707253156745
17.64325378576654
12.830255513774794
14.016363851788967
11.896371947554634
12.112778340539084
20.072105870162513
22.941442917923645
22.01247555063379
21.519448566804982
21.24502791778408
22.73492818050148
22.653946346201963
13.054586682448535
8.899497523922879
11.019781277197591
21.1099382806892
20.758537190686862
16.220239938111327
21.54635403105457
17.957902756352457
14.465911744978639
13.444103756979809
14.536750415785537
15.316391449908197
13.647985268748421
17.32747208582617
12.405009328699288
16.48230232968689
19.449051999776067
15.901312257753446
20.924208286089506
24.04922773036641
22.856828498743393
22.074675690443186
19.093613236999445
17.271095286538607
16.08309836698332
21.784464215741206
16.628681806123602
17.701979491073445
18.276731513583147
17.21616670927934
19.342771356731436
14.294146259156326
10.988393437080543
9.398119505776762
10.654742969918212
14.105545746420448
14.978160955751976
19.24300036837356
16.68400973493898
21.343497744586735
11.986169968395282
16.46582408416673
20.456881910365873
18.60342634928758
17.818242236716216
19.349348865199563
18.312962639448344
18.748729895063725
22.8802224366159
18.688221708378954
18.84630589981503
15.63199222514682
19.697255605841626
16.06506718201709
16.778670675815746
20.70046438742332
16.469307652065524
18.785285844088317
19.65511074072956
21.946120692125916
19.917251855793854
23.805085050730046
24.12686406191235
23.83702075964055
22.03750876392298
14.853768158380602
14.105649553809146
12.503555920862725
13.053828515564227
16.24271326637597
13.891542227040476
11.94621014386428
14.69256291483078
17.145456139410722
21.383826557605666
13.34217340879157
17.83347530426869
25.03581345807044
24.782324584606435
17.597733230214768
15.768552692964942
17.141176569833988
22.30446108209312
21.34733768511952
23.61458756186861
19.065088299459788
15.630572580665277
21.87673934982182
18.78840790833578
15.823910509818464
18.872736902385547
21.967155591828586
22.597536903061094
18.571373611727985
13.17811152474887
17.979837395761212
14.022442659275685
18.24640664159896
22.618367718811673
17.991438946049968
17.674541615792002
23.025435736083487
20.210341678825507
15.764206260454294
18.316278431280278
19.065315227287726
17.11982450513213
14.88373305715473
15.839277495234361
20.590628014528743
16.323592171171065
17.831221858136328
16.563225167156766
13.63994888403582
20.52422726913325
13.422781326867279
13.342571659265847
22.79360587832427
13.96277072939611
12.837046396220149
17.97349442243286
15.139488432136185
18.262862007996194
15.91063085719166
16.529840133704315
13.919484963739496
16.237952560766463
10.251827347086214
18.402365826779413
16.727633993264543
14.965874617920623
11.901455849390048
9.758601774895283
9.904497009446832
19.698655715809743
20.67330032446834
19.21839408075883
14.092607477644139
17.203543638091016
17.57625387721755
13.364241239613095
15.699840637765364
14.182361015360916
19.163392008339528
17.32681107057162
20.32547596196682
14.437516633100564
12.667561400597075
13.378346988069389
19.52563068917437
13.515138357470757
20.78894004782152
17.938258550703953
18.049394636852874
15.334145609213406
19.509842760378852
14.750449133470802
12.925251607979922
15.979185103317475
20.04229896839031
23.05743773638177
15.674656611928413
18.058464372833132
16.38041133100352
12.830606323716504
21.82747451006423
19.472986402115165
15.984381772198782
21.525148312246838
22.215587799542153
23.164014688198822
16.796758400721625
16.907069013355223
16.415364113416498
23.806616601209914
23.631871529075568
19.589718122054144
15.418716100327865
22.33572535773204
20.158971253801464
22.54506377903518
13.397390312590579
17.25971742711156
20.123779896902843
10.541062732167438
10.430105463849436
20.134338759371065
19.348484172794937
21.79301768649345
15.071328691808688
15.545054447908205
16.315795302319913
18.80113498016155
25.533459940537973
22.798064273276424
23.47461926719999
18.459556378559437
18.792325053152258
25.05774119590843
21.016574706550866
15.807363388606928
9.30994618080053
9.92525508589915
15.327549354225994
23.43653098707283
22.962317651707885
15.088297627893061
19.320183134740418
16.748385114395553
12.41153815822335
16.9527347500508
21.930125857085564
19.20379939462096
13.161983437254587
10.671685030953459
15.794122795146777
13.057936875931041
12.322521190341602
15.869765313656083
21.802089362989605
20.305148266613397
14.994429256741705
12.99799460184462
14.133273521722732
14.681411752068223
12.590870130931489
15.239147101720818
16.28149367424424
19.52859759853752
15.6865350501459
20.240628035473435
20.06901377055966
20.802240021903756
15.113322185047942
21.396820448140303
20.861566648222514
14.282146322480608
15.01927202319459
17.96607407627022
22.710753017541897
14.506483943713901
12.767596545263167
13.964837922879568
21.170774836473477
21.60182320179401
23.27163749878572
23.475650510205938
19.74734637351426
15.083392116272194
20.08623680957373
14.82546179908961
13.137254318171822
13.292655616435011
17.371157200243967
15.357551472946456
15.396604853830649
22.368983406222974
16.457983427628644
14.174844164979802
21.844790258055646
15.349916381547509
15.380142698986726
15.155151566010051
20.53661783201082
23.944631174329718
23.631020429587448
18.29059757158079
11.562793409453924
11.779206157061127
18.969971863078953
20.012963872465143
16.796180775044597
19.33985639364622
19.05024700249979
21.20709115262603
16.70516516866667
12.44393637889568
22.182858716862906
24.590550233109965
23.462589311354943
20.425599586821992
21.677489788793608
23.716261105764467
25.189553581673614
22.56871213112115
17.837237223674876
20.541501211535696
21.739799570020967
18.276126272304516
21.407387978880784
20.441711594044616
16.55809124732154
19.995993428371545
21.72645315342896
16.422464538212992
21.119110060777835
13.732096469647372
12.840706791018167
20.16297722198244
16.783222258486532
19.368719541057157
21.84018486869175
19.980957429619163
22.003060400718546
15.279100146702296
20.724200450706803
15.910361513283718
20.71318926406764
21.83497137222128
17.41683340713857
20.157842763578632
17.311512345070984
18.620795247470458
20.264312169955605
19.363098239700946
16.602335648323358
16.03536868740645
23.30939132820292
20.931327417088966
21.068559507657994
15.931279684706215
13.943387607041663
18.92053169595774
17.00264835207964
19.065616740094548
22.419272078266797
18.70890297906332
10.594108562217121
15.737176963448015
22.295148362905266
20.616130034658006
22.67447665997101
21.20086644305912
15.445608002251221
20.216771048062252
13.396776249180128
16.750782119918803
18.164233978078514
13.039853121621485
18.996105150679334
19.07780983948475
19.694970011267365
13.179638627458225
14.509621793563866
17.451681834838695
14.744425623000383
11.729620561283637
10.87549274693622
13.993360022403367
12.345967624511195
13.44402352354899
18.40766976114154
11.98871642941626
12.53420045576761
13.720775162698429
19.98350928772547
14.849561999361494
11.580951477589505
14.958446078909692
15.12897327233796
23.624364031308453
17.281283898643903
23.41010328922673
17.833464260877353
15.643973738846059
21.37665497285313
12.610116463910252
14.16824339756099
18.50201959030278
23.28024496287361
24.463805348293118
20.355645114393052
13.85555689378499
17.531547914100543
16.569915859897442
22.07656626339527
14.585514635461452
19.156657346443676
24.213538199495552
24.40776189378157
25.18211643519984
13.54099004638491
13.543955941526633
22.07414528571792
12.616089437202364
12.754838599771936
14.241878837017062
15.531835259202255