# vtk DataFile Version 2.0
Ocean circulation t=50
ASCII
DATASET STRUCTURED_POINTS
DIMENSIONS 200 200 1
ORIGIN 0 0 0
SPACING 1 1 1
POINT_DATA 40000
SCALARS temperature double 1
LOOKUP_TABLE default
16.670555218963926
19.979975341359303
20.716280870660658
18.81905385349746
19.28522679202451
17.52435296441201
14.877698261819303
16.343620430413182
17.61296148424906
19.65115313079519
19.884180552444395
18.589758610996928
18.65451770096346
15.219669624143917
14.801070990418026
15.542726457953956
16.98396761906598
17.0396782508778
14.891873340738593
15.948061627688695
19.335449252479112
19.31385180199023
18.1552963249855
16.891606855487513
15.700253939638742
17.25914796458665
22.004345559305655
23.03316464454384
21.742410021867236
16.22844234357508
16.119599442274474
18.375606997645882
18.454399189809838
18.6293343683284
17.81527648892471
18.355471609644766
18.12475299863086
18.32859376334081
20.322570763654177
18.867220274414656
15.881022016078074
14.518266542364522
14.773075473745736
14.14877242571385
15.512873003709602
16.15460312490168
18.215431649392453
17.705372458461564
18.722359629838717
19.16389241309023
21.5765043541779
21.84439174074591
19.406247475221935
18.32415232506282
17.249499570470654
21.073914812841142
22.295854254717927
19.241976955851857
17.84818475953252
16.049604036788708
18.768885349442524
18.530431971524738
17.666412989324055
17.31690415680704
19.585258295944104
17.943383100659812
14.878977426696464
15.847403261319222
14.948533232178356
17.78333255677011
18.36423155878189
17.98137232468625
17.934431274422266
17.06999955004752
17.556307843014558
17.958286361938807
18.522336145285387
19.73592358449029
20.55252985381563
20.550490097874984
17.71200367745985
16.99657687359066
17.592364070418487
21.27979263530002
23.342286264774344
21.11358785819725
18.31194766171747
18.745069628088082
17.05095919525277
19.53769607981636
19.020522433317304
17.174470801068836
17.484547056433357
18.634908005746595
15.47428380561788
14.163555382483304
14.715039859156878
17.22365774373172
18.06602194845592
17.28087041109076
18.413589271852036
16.923421918527097
18.081273406712352
17.96302689262951
17.303894902021398
16.11841511585329
15.350343442298913
15.839155203837059
18.993809963005113
18.832734647026072
16.659611777010703
17.94361046098461
17.3417103255418
16.260503104392914
16.356785236802594
16.510962764695876
18.82363022910567
17.447358280434788
16.321382345900954
19.023877088811894
19.571001301292196
17.703675723260012
17.203943944175993
17.514158197324868
16.990787045109055
13.919366905587072
12.99602041901039
15.740505837184154
15.597529534643623
15.201328893772232
17.224151624967003
16.020503897497715
15.643035427551103
15.048226022355308
12.507175805378052
11.925806200912808
12.766542698449502
16.38194954120532
17.590640095352274
16.430789877152694
15.911131070454719
16.702803739562455
16.21861807052914
16.301012676475324
13.96221506089162
13.38524681300431
15.585482790840635
18.18077779792743
17.61803239363791
16.981846217059736
16.717407189156347
15.12725985565347
15.158944027592078
17.23059552164516
19.28560749344034
18.178031984905246
19.13219745708566
18.18974103329787
19.049182544085724
17.327025045982907
17.486564359165264
19.19415167652896
19.061534090659407
18.43866355550217
18.04103285970988
20.12937132196373
19.725831817658612
16.99670781650053
17.18031046699311
17.53960576486556
16.742936896347032
16.913003853504936
16.960572514851613
18.62652528240517
17.189854860782834
17.466593871164935
16.375249664119902
17.331466237132187
17.50072663538451
14.217887056643763
13.896899839656108
18.742436325898726
22.063594840551172
21.005725908582733
18.84053620901272
17.785763358927902
17.244773475595988
14.831549031294694
12.871558242768275
15.834338544061314
16.85087956654227
20.87682314440071
20.830661696720536
21.979050314573232
23.880762687756057
23.02536673713971
20.242019342416643
18.145928920926202
16.918495811305178
16.583396065912115
18.81738275457557
21.82862346334999
22.004471315349384
20.078704890824465
21.283542180649867
18.97913679776962
14.816313630764663
15.840215811713582
17.392722856156215
18.267301819566928
18.68192512441122
18.498996913154116
17.4108936413265
14.827498437755644
14.440411151112139
15.67434617843882
15.768260031404317
16.236362470819714
17.668153167675108
19.35028815289097
20.168706719775336
18.185363025621196
17.251803898602684
15.428421607300496
15.309359214025571
18.79924838516626
21.602152929435384
20.771794548488504
19.26153514220836
14.746150286999871
15.809370031765072
19.02748546581387
20.98578565697359
19.910796568852202
17.865125680098217
16.62796414430043
17.143401862121575
18.97894612407516
20.787198670283104
20.881449126720167
18.703794930181857
16.783373885972484
17.547552546781507
16.442241174290345
17.53353507512896
20.462078138397366
21.764963901934088
19.864576903436465
20.774061731880526
20.87646398542161
22.207163439843008
22.525784522794165
20.558966728087164
19.7653156959828
17.84469645717636
20.05099899939251
19.938869506619074
17.533641935509394
18.713506656419575
17.98038362951616
20.398127127009865
19.77861522083342
18.13698551161942
16.27843853945563
17.4375867771737
16.771189682537496
14.317513431917801
16.46869619736046
16.118613829452745
17.39408325829332
16.519779249738708
17.112483982745747
18.616659826180403
18.575126752594997
19.578339523034927
17.91530352196891
18.27078100561803
19.40830704106457
20.115301187554206
19.986107199317086
16.794800027467435
15.482873136885262
16.869752750692122
18.98599376793968
20.55815244127047
18.188358966228435
17.641555782451963
19.02645400241801
16.77299555134671
18.068777836868463
18.54629425413942
20.33231596348489
22.28597643350404
22.48431988166051
18.396517834199127
16.634205199597613
15.786876395599013
19.289704501176107
19.565393349740443
18.48104538652598
18.4146414072459
17.52888366874573
18.84696827332266
19.72903464632283
20.834643684723652
18.902618536698057
16.580599742978205
15.822788264212132
18.133628495423327
18.388780124081546
16.133994775825705
18.24581373921544
20.256861931161822
20.32495761642443
18.44164177052604
16.326472353939856
18.344926525005558
17.44001283900354
15.95720724976675
16.598270626789496
18.578091500932736
18.93466017150675
18.173593653991215
18.86234124190049
16.921829433964447
13.532229789644555
11.961489673749936
12.831684020458383
13.788744068867821
13.669641993347444
16.241168772933577
15.599770236621262
15.911925382093148
16.721415262446943
15.578054326756368
15.496467811769524
14.640626517529268
16.177270112929477
19.160349963348647
19.04469894683202
17.869032009297072
15.742402885999942
14.617297390138539
15.416830737082682
14.911839389416997
16.28871314168751
17.72224443216375
19.772329807684336
19.229759854908885
18.372534210570233
18.916700022164008
19.07275003062533
16.92457841037656
16.675175319116374
19.290759331985672
16.882179154531013
17.29476682776083
15.388317943525065
15.923893703441024
15.16750558502374
16.52985171494791
18.300640225195227
18.790831336057384
19.822322417309987
20.709905888482062
21.387898418101692
18.24595763936426
15.172470404482258
13.631469640822242
15.490445390016232
18.60194166616571
18.156747477478596
17.41454669395594
19.5704501168962
19.25109065552051
19.518541143918988
17.554015492599596
17.196046100775668
17.87793144099071
14.232617381037358
14.199608889521924
18.64244314752745
20.094631156891428
18.431966817185103
16.608519268880247
16.386946890694933
15.644610893232093
13.895422428692596
13.25687666262789
16.073020274903275
15.924981121153964
19.020867171370682
18.995202619713353
22.22068676488579
23.213262653688574
23.407065722128156
21.7243152111881
19.53803244581115
18.22159073476242
18.06350735481471
15.957883758492214
21.50613595432226
21.78887416421642
20.083371051825402
21.814648875242632
19.94521860831205
17.019207733291374
17.249483365664982
18.78169405189446
20.162638623998937
20.132111220443054
19.64484793390383
16.072317315399644
15.050650617637825
17.533028053850654
19.568381284337793
20.063405208184005
19.451575751881418
20.050842289115753
20.845626862002593
19.674522042800596
16.902306959333494
17.72817020232371
16.49331628719609
16.881676745996447
17.56488210186481
19.800375388192705
19.361032118274515
16.914584014291993
14.63791705852737
15.478529438613844
18.560777065030443
21.931547287963078
21.808279066515873
19.51926916401342
17.620602868566046
17.342049388600596
18.266993876280516
20.771285583702323
22.224823173919606
21.119383208381993
19.9948911259562
18.145631474947468
16.691491786421356
18.493155582509853
21.512223691537503
22.288473905391808
21.10693243635728
21.200271680655554
20.609766807762796
21.907303332206183
20.402943534437796
17.685004185314924
17.269206146174998
17.091958227329034
18.625481317883438
17.99938669533435
17.401663747884317
18.569465465944095
18.418082739379372
18.447181109065763
17.231055657031593
17.135467412332527
14.740223367356613
13.670599428508817
14.104605700924415
13.484138552780074
15.068415260098774
16.313450870339327
16.665518430407566
14.68997290445987
14.418572622873755
16.38995596187798
17.450664935414217
19.75312162246586
18.804589077720365
17.867982317248075
17.016996482937962
18.80162241605394
20.303728785833872
18.74423888677535
16.73452130352753
18.13269952569775
18.897656487570412
17.989283800406575
17.414563730681873
19.426235919418513
20.248677209699974
16.979531578755964
15.27214735211641
15.954514756673326
19.493095648714863
22.21922870875924
23.60196608609803
21.897718859594992
19.294382297330543
16.8458298208348
19.37840462970572
17.47518538929554
17.254998244814818
18.919733317001157
18.569910100469432
19.21971099610167
21.370880487842822
23.575916694343448
22.864084424540856
20.154573684317885
17.600009462973826
18.324654830107246
16.487530698169287
15.21218222932767
18.343390718155916
21.818533368435173
20.876402306510304
18.3181180823627
15.791241232887877
16.70225540423638
14.581383517565886
14.348366736761792
17.235189046747326
19.568447575797325
19.42185412799953
17.090631975069513
15.675585870041441
13.395185855165408
12.254723526087364
11.031117633523458
12.182460623423033
14.766155929570488
13.597331126752628
16.06125340863043
15.172819990478441
15.120833650057152
18.129973730227416
17.61811738585871
15.771773963011944
14.251589897804129
14.552382749639904
17.0305916448047
17.36525666070532
16.611959631754676
16.44770381240993
16.770819384138324
16.803063352171982
16.842295851667558
15.767227262315247
15.524559827684051
17.41410192986348
18.5168437285733
17.094372658332276
18.073035197650132
18.84883247897869
16.99405797846494
16.96528976386718
19.886678647516767
17.036408614953665
15.865775470313244
14.697165645095582
16.132161636617738
15.33058777995177
14.613318803279874
14.98572367066477
16.457198254726165
19.685053873030785
19.583250358385417
19.845246419036684
17.175358330643814
14.441304993666968
13.05503064733874
16.544926734158988
21.244454148019415
21.389317910707753
18.379481876211862
17.876528296534584
18.485043616682173
20.475152967184968
19.26302933566887
16.207469780350973
15.481075255240702
13.238144125747723
13.339510749194213
18.15412616799209
19.391278896576907
19.630518809899364
16.731114650223766
16.070960344120646
15.937151255529212
15.61003811808651
16.36473928517841
17.419322567662178
16.178505740651953
16.797707997960583
17.41892467430534
21.264568589371684
20.83967863891223
19.71315400602281
17.900964802395745
16.641557222284764
15.072602735359986
14.022660338322424
14.615106568031315
21.46312088719948
22.868572998941858
21.77923977110109
22.130919867627995
21.12531031148094
18.925985809880604
16.619264992794548
17.644479609213178
19.89549769227842
20.99237430902472
20.028785684767975
16.194805311564597
17.33813935661139
19.976120947232573
21.822282084333864
21.9732563258309
20.622496459399063
19.283964353485974
18.865388780052765
15.934746119404863
14.57717785265054
17.680930186963238
18.216088371243654
17.520168279691678
15.803882956547355
16.237427316612884
17.104212535085843
17.838232877803677
16.244644759373738
14.602624524230734
17.18855750240314
19.15406767302107
18.643260133725622
17.57892640881584
19.291691274508192
19.90329514999952
19.606838621416596
21.15258474586974
22.28886638072514
22.287557337821777
21.122195365708713
17.689760934972394
17.081567608705196
18.20399978731512
18.432263816392258
19.023505855082302
20.30355557279421
21.33570958114756
21.015577298119457
20.552493211369903
17.011930042929873
15.187586720889154
16.07639784082906
18.171479048975435
18.59811215884764
17.402807712437486
17.950686365736082
17.181508703599967
17.04513362134765
16.313881149868013
16.859117650364283
18.453087564074075
15.803632316732239
13.459985584616227
14.739578300621504
15.48882021051918
14.739882127516655
13.782005593413858
14.792613706362506
15.577091307454541
14.207804711429114
16.98311448667783
18.253151645707387
18.05031836952048
16.62792196992516
17.034980734663772
16.77847816974513
19.40119726249773
21.09880041198922
19.56862783617799
17.856903821062406
17.59716261814306
17.598693813762743
15.914819269291094
16.488979444003643
19.66319359751121
20.20499356140438
16.204932924132915
14.393175437092507
16.09667255533032
17.691511669744656
17.65355427552743
19.703395517270412
21.154095340232058
18.67798001252728
17.923537575162175
19.974164872662683
16.40993987353445
16.52751292987553
19.18456661717448
20.500509059869607
19.107171551828316
20.176333467310993
22.290025346879013
23.446732814007483
21.894132323955972
17.447362342104416
17.420114014210856
16.75374949426878
14.610193758214143
15.68964702318194
19.24705155846264
18.403717614165142
17.359589464102957
16.385691453558103
14.574485671013928
12.33747801014469
13.713206090960526
18.76966922328082
20.039700608563997
20.000067810983417
18.358069559303665
16.727705805113207
15.270483663278444
15.502919826819538
13.987034866836897
15.039744006357976
16.764679908524766
13.544907458048987
14.571702389412888
12.787327206345513
12.99071189628558
16.725537355924132
17.590122211867957
16.649878900167064
15.989125138384125
16.762825928093296
18.611882314144992
19.382289155362777
18.117531815432645
17.597929013247242
18.070427200569608
18.956942516327754
19.258028154561064
17.091353081374095
14.574023003664522
16.242069740407754
16.824063373429354
16.010137118655035
15.688208683851038
15.454361032122167
15.879405320236772
17.756787203494238
19.341357203732077
17.818022740437524
16.47697273178142
15.004489336857569
17.6211488785079
16.071840723057928
14.651735590624318
15.018902703014849
15.741428519583197
19.235847797343915
20.323645278130275
20.68027883044302
19.602590371411303
17.21145385523856
14.740463899824913
17.061428953258865
21.493651256715655
22.29754904808606
20.611675939854692
20.24635883028717
20.696517888370185
20.574279990437258
18.28299014477174
14.319527143059842
14.466109443394796
14.156405644077967
13.052127132687358
16.633038864973408
18.00091708946546
20.131150818313582
17.19031444891848
14.851033188332302
14.242969082795174
14.821670241945169
18.985511521079257
19.179211480226783
15.599936463776713
13.625237993355872
14.765092506305532
18.725562124706823
19.100564421887103
17.044132394740295
15.860114792871716
17.714194122295744
15.662087459768266
12.492524033694282
15.931560163724125
21.6965072294202
23.242427865400767
21.094449130370723
19.769588996233736
19.00418389531975
18.017866510577512
13.123121808572362
12.523331833880734
15.280831293718261
18.837311981534334
18.833526367162495
16.82316866147545
18.338162023584758
20.317866022415043
20.210955886048616
19.782992585348993
18.492782243038786
18.623281292574074
17.06440610374717
14.224251156653843
14.319943371343173
18.04130475250721
18.60188568771536
16.686230823972362
17.141982224257074
17.644173793444434
19.651498685721972
20.2834010889293
19.58260435996876
17.214579520583634
19.200692632804113
19.54436662692955
18.471945377589133
18.926752508997897
20.696157322759802
21.41579799433352
21.713597218160128
21.883671531909396
20.693746587793655
20.9450604684227
18.91236164422002
14.811752595351134
15.260943930103934
16.308954041355452
16.8462028777937
17.846578339445337
18.807348123698034
20.65187272046512
20.482222779631392
17.792417246312954
14.962407577739338
16.79885620803434
17.866539178202842
21.18486482408117
20.964207998095137
19.46837061569943
19.502314276822553
18.31585965309765
17.433324191062916
15.998796585274118
18.359782087603932
19.18978341591112
16.725540368202008
15.426364235116548
16.781374764435526
16.27186975354955
16.26484818674984
15.163781375912516
15.73577915479111
16.815015056291212
14.678589260823495
15.61649286393952
16.937324411505973
17.637167250850545
16.14429312492369
14.950250125575499
14.725390682174243
17.98595520904194
19.208713180702816
16.795922571634822
14.863605126581284
14.229923085741705
15.368162888138848
15.970669285208432
15.812734406664195
17.96280913993199
19.436072500040165
17.12919625987305
15.00255671098394
16.23962416140721
16.12511110189018
14.980459167794029
16.090645615698705
19.27819547473627
17.58054584882767
19.059155272541634
21.051241040447472
17.680242386087794
17.57670911934929
19.727384280030833
20.776376935593202
19.561382132629596
19.43430624276648
20.283982466080214
20.832974204596226
21.228231948812844
17.747315641871694
17.487286819428636
19.100527904769002
17.004757789048767
16.41850916587714
17.058190305075087
16.25802241761971
18.06801434514812
19.19804037873498
16.174746787631083
14.042370104153047
15.20818108408283
18.734580265513667
18.224361171492657
18.11208638819005
18.764501508243793
19.318704752187298
18.878926258732168
17.827987331331663
17.94442191405347
19.20697403322
18.771272710418028
13.557447156915828
12.351105934118992
13.013245638995578
14.140417710921492
16.220394217077715
16.045338601858685
18.39730812411207
19.51166783810291
20.422609803023764
20.11815293875616
19.254358532311397
19.329528511901014
18.816366523273985
16.18422863331797
17.298507552625257
19.717450378006937
17.00041808168186
14.721054859657741
15.27025409231289
16.434291372086996
13.908296833344258
13.51956094323925
14.08263721203922
17.245368352479684
17.946771663978144
16.568869094478785
17.633661848181067
15.935046402583751
16.158988139341158
20.233541510590896
20.12588942125836
18.9695901907761
18.097866678011684
16.438811472887814
17.965565963620268
19.877538817786593
19.7410786234811
20.15345727054842
18.844151167092438
16.840851176963245
17.94263086193305
19.60930403454631
18.032908315928772
17.147041439615247
19.393960001650015
19.98523488145575
18.922785291944088
16.471091056419816
14.573473623241794
16.62657358355604
17.79041526398255
14.816555122638519
16.61758673069919
17.410018785006205
19.29876635922839
17.865360876055686
16.584975570985133
15.0095087585654
15.050341332633204
18.568698515554843
18.034425734452597
14.118790085335894
11.74468403961009
12.68953765374146
15.397958059429858
15.891320256921338
16.88652866909897
16.288119554691082
17.52293463947738
15.503669091637976
12.840545469751634
18.4079801710093
21.68469741695845
23.51554975640477
22.437928504019506
20.174672284110397
19.454490529894027
18.594498279378328
12.385738747080614
10.361288717145925
12.792467521868012
17.31662479040142
20.438938973979205
20.08144008620559
20.300572192489714
21.086584855289516
19.51773876933542
17.0257314588396
15.865943200158636
17.742273907315507
15.783981016602205
14.784314765356772
15.85943851011104
18.45437778334803
17.099600003475604
14.54057856805917
15.664002711552232
17.355578322158408
20.63166060392726
21.08620305574544
21.306353100762216
19.775664588616706
20.6140327769336
20.874815688387738
19.956309321360663
20.127654377225365
19.438188060934042
19.408560786416327
19.428160626046658
19.139658243280735
16.748883017985396
15.752045970670954
13.7579983346772
13.27819707148272
16.09367914537123
17.027481396197178
15.748184449348752
15.890175483636202
15.722754191108027
19.351990834842606
21.41045489261483
19.178592481156624
16.120342884033906
18.175296632024686
17.838324116704257
20.8397889841901
20.2477591246438
16.959479270490974
16.6163602547947
17.87038249872009
18.579394219981886
16.832524758682055
17.7431497279791
16.88689752185246
15.29113267643542
16.412003681610948
17.378322810338684
16.843178440399036
17.378151341612067
18.36707717655032
17.82639267755822
17.775881678150427
17.16942509922633
15.43595464398498
14.471730744440416
15.323252869944124
14.356230387793774
14.332553729012353
13.721496753836593
14.93551322105759
15.639991136198184
16.189059726591584
16.932834705386995
15.865523284969573
16.853651225167837
19.01661110989576
19.266692418162158
18.38968361744509
19.017174359411577
19.3878418524168
18.685076540910465
18.8488806639627
17.986199309560174
17.233865804967603
17.399601240301777
19.39945683861998
17.060843091970995
18.498789967661942
19.968044773856285
17.566085083614485
16.43456200599404
16.285246513880345
15.716695760219602
15.839392728592662
16.513825125240164
17.261171469660674
17.953781506161086
19.80583665572273
18.6874674322882
17.971486747079958
19.368929314281406
18.795850843927084
19.758638249549072
19.34261185987382
17.934642064226484
19.52219858216544
19.82381115129331
17.925901382775763
16.799177540638038
16.568130981327172
18.278384333392943
16.560564497870395
15.697787769166402
15.370197618314185
17.745005426653478
19.77248437841535
17.25271725093963
17.49229681010778
19.378907387597227
19.295050081501305
15.934664600206311
14.376919269689061
16.829909023754
17.04940465976214
15.372310117322435
14.105040060498196
17.800906228476563
17.256981139824788
17.050472523302364
15.526840671250389
14.138800459576922
14.982853157157216
17.014863512780774
15.99322849738643
18.273826789289835
20.5545205227128
19.628978679812736
17.540346250212817
14.754588014134354
15.215770030273074
13.195508887061337
14.469700032740702
15.968583836040073
19.603799071859353
18.782652096238113
15.62086732116882
17.33514015275837
16.77654488458251
17.651115972827377
20.436362331101538
20.222746548628947
19.27461930774617
19.392762076846715
18.678279670202873
17.242750372177998
17.9161021227915
17.31948218228685
18.688499585742044
19.14981193428523
17.85128724393554
18.287866602056955
17.06428448173497
15.405703199917568
15.193066720303031
17.084303086655723
19.19536192045113
19.114388274212622
18.52027083721917
17.20986407795479
16.774262237797647
18.415241968478455
17.064288234418115
19.744232492831745
19.468913671047165
18.429061473728545
17.640983487714948
17.405307182028952
15.68836262671301
16.11880814576251
16.066861530789804
16.088162763112457
15.040040223388479
12.885570805946811
13.070738315624757
15.618603164747844
15.971471967216823
16.98286449490486
15.01697274128021
15.046029075767446
14.300400419737011
14.618342001784876
20.601795490772552
22.010044683397407
22.403941706004872
21.598677486226986
20.967205953652805
21.559775187688256
20.052464019419634
14.029450758575104
10.69616535844505
12.554990086745835
17.89493889667636
20.35428753485533
19.388417102634623
19.548718344885536
18.796270842118528
16.511271172268856
14.898742365389152
15.320616457336099
16.552566715654773
15.587368611578642
15.265471121595512
14.394189143973659
16.588590489742064
17.00958231658754
16.066720849820584
18.52190192950791
20.945327249757085
21.596815426856974
20.37410515113951
18.937530151495924
17.72955119919153
17.779977692135667
18.93170468121225
17.94339126569223
18.26757410802049
18.41425965080981
18.024499419322904
18.411214478480378
16.709212221879714
14.370852801250129
12.93809383239728
13.23991963692386
14.496595356449731
15.819489575253131
17.288332415376058
17.193337686085652
18.09711275243103
15.250664209383983
16.908435895105367
19.109077108512246
19.06950894294323
18.338781222525544
19.346603287704667
19.009690111683973
19.714985852326173
20.02163181722184
18.35654875568609
17.264765973462783
16.74442387617503
17.672757120824393
16.844977986728566
17.2143068641869
18.019856327037903
17.402628355544508
17.8148387871082
18.492996767840403
19.57585438812317
19.182808670138613
20.516238335025047
20.846817452823554
21.26309013947414
20.391177639855698
17.120308223978657
14.862217469138143
13.705051760951514
13.762838786556784
15.372740670635455
14.769405946015993
14.358182662976608
15.752183771469298
17.45230747856452
18.757153381787084
16.325741175669332
17.642627933440828
21.751746356882176
22.302183697994746
19.441608804611004
18.250394880047963
19.228190371156696
21.01203102779891
21.43228955619112
20.98902713523533
18.94170663225037
18.188393462426
19.980709893830415
18.360849897649643
18.1384175017782
19.330405535653234
19.666673075819464
19.670138139829184
17.993246034333442
15.706208733918196
16.47449396055293
15.657334538804685
17.17466695678304
19.29423799626622
18.87298658851089
18.905793254933812
20.35237706346557
19.8595010482588
18.34165405826286
18.48982146418781
18.84191894754395
17.482196056415063
17.51890330279844
18.18368775513007
18.582372200803686
17.677337467285984
17.27126995239068
17.196018911526593
16.41468843215137
17.36964739462853
15.370573970798523
16.30975076032886
19.711889644464936
16.96156387413318
16.179772628102317
17.371125756391287
16.926068442425976
17.07887423647569
16.168398449106288
16.956792958003156
16.645789392700543
15.604812858677652
13.39340577974278
16.791263879299844
17.209506935966367
16.279117819881893
14.689210981315142
13.247451547839384
13.701578055551327
17.564002091636894
17.903590022137344
18.075232147758133
17.339884931543786
17.31838655432245
17.170476995343353
15.416993954263852
15.746153132985844
14.810679293893298
16.632058121625683
17.356700187188327
18.310510521839955
15.82596528502038
13.831784006451361
15.04164674866038
16.410635698963972
16.268095977373317
18.911695712535014
17.98360915078962
17.338919791551938
17.119761491831394
18.124322897016242
15.934913982498113
14.99927942448788
16.16383717086297
18.664974858747406
20.384079948919773
17.991586757340325
18.318674846745168
16.757088513457997
15.539374372824371
17.989645113596104
17.562372349935238
17.65617130399477
19.79050730332191
21.135458843021176
20.770265988278677
18.108696493806345
17.304382018578185
17.555638312281996
20.613941303496556
21.0875859955814
18.771336836306695
17.961007933153837
20.221626648926517
19.99071724136995
19.753236258038097
16.05881832145197
16.55491985728092
17.20081540254293
13.250810175673504
13.103197883526224
16.840579665335074
17.953009418406765
18.77376834142646
15.825773191528317
15.883002211635375
17.169855991777883
18.68611421018274
22.415422265496115
21.419857573749148
21.647998574767946
20.62913367669493
20.472710873811373
22.217544159846607
20.298744500901208
15.40386440478256
11.515039646182974
12.743310456794848
17.18612221655918
21.225353999705625
20.719184382991056
18.20324190849982
18.42479071587229
16.42028572857028
15.449182569214669
17.218349148151805
18.61612775311273
17.62762951481868
14.913907612245
13.164868198791158
15.429534782413535
15.175784046432476
15.293367078934569
17.887128838339176
20.55932311089752
20.162896600536587
17.16442818684465
15.743414108510052
15.82602280383041
15.703858414557002
15.540716847640615
16.204325698939268
17.59351614932975
18.717092078724267
17.82705266242885
18.978462397632153
19.159464360645394
18.63271630031472
16.872193959510874
17.39500487758631
17.25800470871333
16.141945582119796
16.03098104225013
17.46952660725222
19.41673058937539
16.779847300768818
15.92858756588582
16.716431389541132
19.06331259699139
20.180564359896096
20.730649489957667
20.380657554250188
18.920154081061337
17.4120846729592
18.131583986369034
16.395222333184314
15.571566103202256
15.626860802034031
16.650472333329375
16.52414317819531
17.615366528047385
19.126006572838214
17.34743514948706
16.79920869940076
18.85451238248104
16.848033465764505
16.765413499197614
17.411747097228215
20.516701017598795
22.09377815628233
20.632011777212828
17.029927898257547
14.05007893650818
14.24849897469097
17.247694060558214
17.399745665827442
16.966046424807754
18.663911330061516
19.58044764596036
19.98427542373777
17.466226746926026
16.457135546250882
20.99582124205256
23.005842198566206
21.65651142912263
20.535869516884162
21.273078796590728
22.433070489663294
22.59481468805757
20.846911176312815
19.339619231549193
19.93397714160107
20.259922900431427
18.834370840785542
19.64624808771822
19.452977756894636
18.6848122158658
19.549580578318963
19.26274013026231
17.408001979262988
17.32209505771455
15.138990503946463
15.392720273645718
18.059941167499264
18.04103589220218
18.87573609579174
20.869838041483465
20.54348808131911
19.705727051491277
17.423671952785416
18.671937941682536
17.515106313113304
18.641658272477247
19.58523711691441
18.5821199747317
18.908801908943573
17.615473494771283
17.49112062317599
18.215834427400882
18.725109735841347
17.053260088563366
17.495395073962573
20.776849242589034
20.014552972834977
18.851693625592738
17.45835547733945
16.23469078817759
17.564236284286704
17.171250330163595
18.268209160046037
19.527960958790246
17.77798403701595
14.040851644070957
16.51998584952589
18.938929689705986
19.141628765740222
19.71905106966671
18.78150514192988
17.006383401824568
17.709834323716535
16.07053264451747
16.688679364733837
16.99550606158092
15.873237159713986
17.18054947158566
17.638308075627805
17.68653582347556
15.781100802373434
16.635765388735077
17.610153707507177
16.729859113466187
14.407244497578425
13.346616157994056
14.389761703081316
14.565642169442809
15.752654055779683
17.8963795132915
15.679018412868626
15.364540974902045
16.090596576485748
18.245701200089517
16.473324133341578
14.45455838772367
15.129076847192039
17.072432085654714
20.439265421335158
18.918176879018183
20.098049186929888
17.96423887062596
16.199723741467803
17.536181414976944
14.949647090277615
15.63523492285296
18.420545930945604
21.508966281255496
21.912351586140723
19.60771313435722
16.476197414552935
16.529028910458013
17.28229246261164
18.883661382865583
17.16329192660184
18.593278083925313
21.838563908030466
22.86655072824462
22.11146985492317
16.87564804641572
16.95953135624631
18.88371062509927
15.136993566224964
14.493690009514006
15.831976192585184
16.82560406227331
18.388241367136853
15.870665535212508
17.4239924136162