# vtk DataFile Version 2.0
Ocean circulation t=40
ASCII
DATASET STRUCTURED_POINTS
DIMENSIONS 200 200 1
ORIGIN 0 0 0
SPACING 1 1 1
POINT_DATA 40000
SCALARS temperature double 1
LOOKUP_TABLE default
16.286800132420282
20.407524400877293
20.88000622778753
18.16977062465976
19.543340687670938
17.660867833761856
14.24681551066298
16.45598733411439
17.549964158473163
19.99222965097822
20.29201681387714
18.629456339632586
19.272934542547972
14.596726774012344
14.233638834951059
15.128907001471669
17.033317105450468
17.19116000592647
14.057032943831357
15.425523307738988
20.16258337206532
20.07719851745621
18.534385904157585
17.181143611277484
15.26839417373711
16.774034096258664
22.581381002357126
23.455271653274853
22.348370303785554
15.374203695431303
15.862757542710579
18.66961094151534
18.127761349945935
18.420365743563323
17.456865250007066
18.693691189747007
18.011384963591304
17.799328947376832
20.859628598638157
19.17912710088558
15.60599325160433
14.110782475151114
14.708222260302213
13.854412313338887
15.83581760738561
15.949724413506871
18.496944323986988
17.05264952046712
18.330531863119585
18.854305233941187
22.042222395494615
22.326064777990226
19.618454338093123
18.693628425976307
16.732247927460456
21.63214753513676
23.032570074991423
18.971405104298295
18.027675558354503
15.30031872392464
18.830908041374666
18.225324301225065
17.357306279499415
16.9999340374107
20.329597597284042
18.330473918912435
14.678279574061786
16.454833753729368
14.499377585021268
18.224599825161484
18.553989330017806
18.015397854379234
17.860076687747295
16.91633712872834
17.125907267850867
17.62012866220882
18.44655457632753
19.796973458770253
20.626253868474926
21.05331538022645
17.481294480698217
17.2895741003648
17.52598526783236
21.74567817771656
24.020988883423065
21.332438839333772
17.86792751508655
19.064952232723712
16.70646660456288
20.368697973359872
19.57209967244488
16.86707671647701
16.986658661598426
18.961148173886382
15.082908951487873
13.593030597311134
14.031121442121501
17.072173638814867
18.352192742375948
16.989225366906485
18.581305008148057
16.378135062638012
18.126312950361964
17.755447412721658
16.635798340090545
15.349403599890508
14.615284798976488
15.25241571944123
19.621719010296793
19.28475570935384
16.509148419779436
18.48130871925538
17.142972614309084
15.627765606335748
16.265822825465236
16.328053311459907
19.430744548212513
17.430720501484455
15.745448715525859
19.50079417431236
20.050344546120666
17.31564053342777
17.019941565682455
17.65873496325439
17.476374599162796
13.938884675203914
12.782886557446172
16.45639104213158
15.70702466693971
14.936977465279107
17.670729378440228
15.799824106509615
15.28376139880618
14.99321124551353
11.890304352968911
11.508080447601222
12.284693175471105
16.549453086699682
17.62936299835165
16.079465150059495
15.692918261688297
17.18931969238961
16.173881791586457
16.634417206978693
13.713922854814337
12.725568152575509
15.239298512442906
18.48653196079941
17.20767297016589
16.60978930445631
16.82283807857858
14.505009121807221
14.629964612678007
17.260147285018597
19.80602755219139
18.252835275463983
19.64945139778385
18.33960251318225
19.550532216247777
17.147586698281327
17.526210091210437
19.721694788389318
19.197778978892785
18.540828666461145
17.786207330613312
20.826013785186213
20.305188987373942
16.48693063116956
17.304233787391873
17.86448153377219
16.392135772527116
16.823151433948322
16.579034594965727
19.04227676975705
16.763968634733462
17.458245848951744
15.856369556607708
17.572291536920027
18.180395666003744
13.892741204700627
13.343556391830576
19.028590602529974
22.810304530213674
21.471618728690746
19.08961957415123
17.746641218154544
17.693675650243073
14.682230741020375
12.084715995458323
15.949188560069004
16.443174437223554
21.64246376732624
20.895266811501102
21.688105192333666
24.298264592234588
23.508050340877332
20.42556003770849
18.327712565421805
16.899627089522237
16.543177313658525
19.156275654644993
22.35040277563596
22.4250289760173
19.859359638003365
21.862805895236573
19.281548102322574
13.935175459918677
15.580440707791631
17.299704785257102
17.887305123231602
18.419344939822054
18.42853818893874
17.62374546005128
14.575993950286405
13.860129230583022
15.428060383537446
15.051812871288226
15.635878016533317
17.733855896323092
19.663387712873543
20.59158426539874
18.02173571581715
17.184749146979463
14.94209479450243
14.628906122410196
19.281289603179182
22.144459790716315
20.64115058481604
19.669055268554743
13.944903031415725
15.599669564174024
19.28747380451049
21.51901697946599
19.89982025036821
17.58996496074555
16.096147196914487
16.880465929696193
19.214957901770394
20.993652588707082
21.190543064221938
18.74285481518893
16.296836586048283
18.08716710930897
16.443518374505814
17.384290097254016
21.007029250608838
22.473910424180353
19.59709021593148
21.10721762047679
20.981285856879865
22.353719548764445
23.08841376963241
20.850900584710164
20.394074821616407
17.49369018971542
20.359998436801355
20.158700579453676
16.87923038429654
19.106389912210872
17.732651684704233
21.19577434732776
20.36779563169112
18.35160788532365
15.969234835988662
17.855622561616734
17.182864278491664
13.760854969485449
17.04957209572971
15.981967642337096
17.67315152879891
16.32938979699644
17.235690516278655
19.178192116012738
18.743599951147374
20.14812353535667
17.510287314865213
18.197898787528725
19.748086580968277
20.30265951767388
20.236259831581908
16.220888147630564
14.858004442684607
16.567486425668125
18.716260511875358
21.03642667731806
17.695139580254125
17.104771409925082
19.373624694482665
16.249872962993944
18.345246195876687
18.612667687396748
20.77033838429636
23.03236467268853
23.269954535673467
17.976263351334094
16.56225683838782
15.287788028202588
19.920029708656763
20.143675745022772
18.65577995293735
18.433671695520747
17.236009546577996
18.977683490375068
19.67290975691555
21.316969981236188
18.811814014342943
16.163060718119837
15.276883342165211
18.196151735775366
18.90720201750411
15.644114202253649
18.242115255008255
20.58240838679537
20.981544086198067
18.738300274962533
15.849372498985256
18.797041285588918
17.866309484135908
15.918288377502618
16.025151745559306
18.501848368768464
19.17883909140168
18.217677632638576
19.74068244887573
17.510686430587192
13.424932538695904
11.720738087773844
12.55633658580087
13.590879833960843
13.185284413643487
16.521032552779214
15.461180850802926
16.010990462203498
16.954481573416047
15.541686057757573
16.045713679240897
14.649768979258113
16.156029142194363
19.98738684995506
19.678486606762082
18.41490553454183
15.392782037779018
13.919421807214606
15.347511368770649
14.5384295931212
16.77072164560213
18.16002414270618
20.539390277043815
19.501785544319983
18.535964408857087
19.27407945296844
19.86158234579736
16.91641383534312
16.20114511328538
19.828238816519622
16.307330523711464
17.586718551615665
14.827282446995198
15.69485309637546
14.62957273947265
16.622787702602647
18.75134186948643
18.96094481481768
19.957691895900656
21.19246522427633
22.152243247668803
18.143327125108637
14.955521373516934
12.918813831968961
14.948015960601744
18.970763081065044
17.914003876301976
17.011396487312613
20.237401574730136
19.529430145610526
19.910559220100197
17.26126854459218
17.132037949247955
18.75207064695621
13.923099009696132
13.849646809425819
19.02588725016219
20.27591633890809
17.935676696281458
16.147182016682297
16.348904006787713
15.518427265660051
13.470048179025609
12.53743878589748
16.368109960456728
15.355445434184958
19.468056409724603
18.51251763238075
22.639645266913146
23.43835447355327
24.07230248304136
22.395182047842486
19.920864346513056
18.609800110033117
18.640575584261548
15.345821779967386
22.097330111562467
21.832696290668846
19.41172028517641
22.266888934910053
19.99329109349794
16.681514386037087
17.364922581690788
19.07236381630604
20.572852957726415
20.19064185101468
20.124309332337717
15.606037617891642
14.383508312275573
17.707169301612694
19.910560116017393
20.482126524061858
19.522628065063778
20.38866979772216
21.436920892688875
20.266255016874638
16.579135426722868
18.079581992963792
16.1908256411485
17.01092072694382
17.40660840542872
20.350302389729322
19.756694645482085
16.458053056860223
14.125195178819096
15.364218288380147
18.59840459376553
22.758224680319735
22.659238706795257
19.951137092032624
17.35198489715312
16.937372816242895
17.837962012736686
20.840415407023173
22.65875358012854
21.205921996331217
20.327882952463806
18.205508949407267
16.25569967930886
18.46500490081688
22.25730471491389
22.94087540266447
21.165221805199845
21.305879511600985
20.23973647452351
22.351344352935886
20.693170232930065
17.37033186674344
17.111309899823073
16.671745327864674
18.743185216448996
17.85806092791571
17.118380076769373
18.89980058812043
18.614993456899686
18.61339079521632
16.79219063759726
17.13799724329449
14.300497078885234
13.091718781702797
13.876130281090479
12.879870469817714
14.961232322146529
16.800104323565122
17.109569411405367
14.133909929792006
13.899814872658135
16.147003453970388
16.990144762468557
20.371378967161757
19.201748611263305
17.91199881141001
16.41043494751469
18.583265442332934
20.573353646777417
18.959834856177263
16.30724737145415
18.44338965728053
19.24330238234047
17.884645763249754
17.143201893086022
19.749625927724804
20.847687794857634
16.959741214637006
14.790984548715294
15.259750230973946
19.678705944343736
22.870933875294256
24.49554070232292
22.45283929228048
19.706371942716274
16.21473140320703
19.85546014039127
17.130812189497636
16.977186755205963
19.22948292869267
18.306789279509708
19.104360142876597
21.694510267932877
24.355735395071036
23.445702945504177
20.326476582419236
17.461265652693456
18.812769543265844
16.11976995704735
14.69313479876402
18.66202311785861
22.793794464686805
21.354738421326285
18.418093682670175
15.219092743450304
17.193133629768372
14.292397414478112
13.898688358667584
17.192690280980333
19.914995147552315
19.645163052855427
16.680279238567753
15.282603420256697
12.615153797962169
11.769278231004193
10.351063413748946
11.613489781544425
15.148933784685497
13.142704241839542
16.6192392386633
15.335022473665015
14.89186213293571
18.890333420482598
17.984706551360926
15.635149697854315
13.829516843107497
13.853553228359877
16.840477700511553
17.00305543235455
16.188587700082255
16.376926973295763
16.949186418099167
16.661560164077674
16.943258870322687
15.404108116565109
15.137329756088647
17.30403703670367
18.971435786381228
16.712509682292122
18.250152979543557
19.54356606717196
16.92854496977816
16.504313358047263
20.73083526210979
16.739643423361247
15.62078496286565
14.321305537528573
16.269605110807415
15.31901258766214
14.303255266183504
14.464766689388956
16.0547265963134
20.15501128111779
19.228614783288602
19.89078259343504
16.755619988387238
13.90984889723262
12.273509821576564
16.512724370812315
22.022514091282527
22.01968659203921
17.895648908804233
17.231676653820177
17.903245620970463
20.936547270139464
19.813246453496603
16.040795531835627
15.50392891344476
12.76986366700223
12.738249042685823
18.731316508806263
19.541181548534365
20.105405592524807
16.407725477913836
16.158870580194097
16.227101764162487
15.833854748822862
16.357138938908566
17.599315908749418
16.067424495703005
16.944491981262555
17.149443566889587
21.964540546893506
20.761239255681108
19.674168050107237
17.638092334624403
16.16398832191099
14.563648759244364
13.413413478803161
13.7601995334984
22.07737349898207
23.196488058743842
21.91119206741913
22.595274476502315
21.65631684834666
19.26664367163474
16.562775919320593
17.98156541738263
20.529994897099552
21.531814509131124
20.574253860331304
15.543639394282895
17.383930993997655
20.278993367623166
22.451410564366828
22.579544949473647
21.01210817530716
19.07826880029369
19.15248565421716
15.510680327613159
13.823534718572548
17.940475428779415
18.48944815230751
17.858924542521546
15.146203275463364
15.596232382472598
16.50112578715606
17.99383591707643
16.08857427770332
13.70167825983709
16.881436457374463
19.04947938017152
18.360045338516354
16.80344982391682
19.484837899342942
20.157666674228565
19.25724292885514
21.122705796634747
22.58839419636955
22.641176703459568
21.74933221602205
17.634202545715766
17.174961535989468
18.547637184851006
18.159623102921955
18.633018023237813
20.420023582391785
21.570749818261866
21.117654018658452
21.13489990928214
16.679673952211424
14.386240194887755
15.612979951150622
18.14892341516933
18.50013299389066
16.834968554574697
18.023958422038877
16.758807430109023
16.933962848192735
15.981446241290485
16.474505810298563
19.038020444203244
15.806983488885017
12.78415922088228
14.636579942361958
15.890984352542048
14.545544514166274
13.068767273007039
14.478164798728022
15.864175493649672
13.62639796109756
17.454640240741586
18.69495148681924
17.975283548301977
16.137537612698864
17.327394942228796
16.677499789972707
19.72323463207541
21.7399257538774
19.990250461734647
18.21983973340431
17.90960399302343
17.94313217220731
15.379744028754985
16.193865259899585
20.211696639170558
20.8011993348399
15.724206793356785
13.865502091889518
16.180736881743474
17.898397811913902
17.1476268798556
19.73257452288609
21.74176162965583
18.510093421079457
17.56363286541205
20.603591355767225
15.678352351505191
16.038500003179237
19.260718909794004
21.029162185693085
18.688791283834682
19.97446613951286
22.412872527654827
24.105329102382257
22.512561985077554
16.834068991869213
17.40674243190871
16.69982494953894
13.912680241206084
14.973036399590676
19.75984147697296
18.386815654130558
17.146682559489406
16.235012861767725
14.19957737911634
11.498358739522544
13.03658732361425
19.433549921931665
20.40732022821225
20.471843148405636
18.443540529255078
16.518667848827047
14.853835596537094
15.911494321740077
13.54841571825766
14.775165429949928
17.368050897503988
13.0091296087184
15.093439321469281
12.246506307620932
12.186175291182636
16.930564909063087
17.999176829747867
16.48708588627599
15.595192126087086
16.44512852768087
18.708631522038292
19.901510165761824
18.019272823465226
17.413771907892965
18.42786732078569
19.499102239688686
19.7255936812712
17.37065417260032
13.947822493222835
16.407519624683573
16.75735629201765
16.128020552958944
15.679155401063527
15.147189764163413
15.388618421641755
17.877662533966376
19.985717083338905
17.85916104538012
16.71261727321556
14.401794655679707
18.012388499539917
15.625685826702847
13.928548737870749
14.677047612047376
15.273151047159349
19.638687222041476
20.512340294950747
21.041277827432637
19.969930164494215
17.398046243542822
14.15605038011814
16.75057812851286
22.105495106475352
23.170396642251163
21.15642223875484
20.504789512976448
21.118113631537778
20.997251600683068
18.615902115534144
13.586993954190905
14.156557228925418
13.956851775668547
12.285347171894657
16.763993627008148
17.767955252422524
20.903782419060498
17.089806672207914
14.27628317587016
13.844323653025809
14.235512210804869
19.811082243525075
19.932489159022285
15.53150527358967
13.134381265053833
14.380629514805808
19.23626912933812
19.619191823023037
16.61897075886084
15.168434260529368
18.38019877729835
15.923452235181148
11.715595322182653
15.511217310252157
22.2165361116345
23.660296443580105
20.699163763733424
19.377799256789405
18.692950324190427
18.337336166734627
12.309268167547607
11.825585831898994
14.922971935690597
19.209712635536988
18.684899657152318
16.079172827335906
18.17819315469453
20.486409136076944
20.049733270190934
19.95382683505113
18.366933818145572
18.84199860585594
17.181562813226982
13.641081865233073
13.686057187587831
18.378053085729306
19.125763139278902
16.52952350359881
17.572710741540682
17.704059183659783
20.014735552526663
20.594488705240764
19.977166518780486
16.67045804814044
19.497913404665596
19.586258600495192
18.076627407668244
18.792784125752384
21.142791807091612
21.841545626622416
22.25160815175658
22.44260943737792
20.730714525985395
21.659735317286994
19.548752802413638
14.100290522367185
14.881122861453346
16.031756919191086
16.78015895921648
17.99995730609681
18.909483354079686
20.936249214966786
20.566635066036877
17.284439891031237
14.056576976316666
17.012034912430508
17.8160602816491
21.996779127276415
21.43013781729332
19.86588520442395
20.21878537779527
18.45015006222598
17.409784343639323
15.384518625481352
18.82052901715129
19.936662367411657
16.889229893845474
15.2220324957651
17.21426422080769
16.198137623067602
16.505990206344812
14.745212485438397
15.555856026901914
17.306366684052776
14.049676324024357
15.433394940839603
17.149913042073766
18.123843329963787
16.304059672151176
14.656941453939401
14.177948313860085
18.434728147275823
19.857252474003875
16.457774562531288
14.09314345549256
13.430285838613326
15.012431387238207
15.777705094902425
15.032427971641756
17.784341735274403
19.84779825628737
16.961626255497226
14.238463886819902
16.15031913839202
15.878665894481621
14.173912016068021
15.24252648025479
19.655814363172478
17.128662717500855
19.2031366494585
21.940775578263008
17.457787963575047
17.615644291687516
20.339931213351125
21.682289092438964
19.947253450900952
19.5776726773591
20.451328833385798
20.842965735171347
21.781856589793122
17.2759466047817
17.21587503105179
19.843910166880736
16.913363133413487
15.961374306536035
16.69316920355389
15.479112621762411
18.03611341933464
19.984354524254886
16.04897587162712
13.560017457329657
14.979147383842864
19.24543662380547
18.118554172969734
18.062271356238476
19.260496682310578
19.927133395691992
19.234274534450208
17.99958008306719
18.336601178732142
19.84310681000254
19.485592323800326
12.78951312961643
11.654736592184662
12.552958613722804
13.815627990673145
16.583925899424322
15.75076555258942
18.7949524413539
20.226433671598908
21.398618981570007
20.890015685878847
19.684804411295737
20.072873728317475
19.46426785059539
15.510773204661053
16.765728088325428
20.29235637194801
16.54714002008196
14.069250397930652
15.164752265858489
17.03173870502995
13.490855594524055
13.0846733426062
13.393110829956614
17.434452559414506
18.097290387529167
15.99031446211662
18.01875585883008
15.517798197495143
15.636742973519977
21.00534745719379
20.687546383996867
19.423608541048626
18.42072887322137
15.833203828095264
17.846390642844675
20.297717043562677
19.808212020605605
20.5875159381061
19.07073532317353
16.61580297267104
17.92648579204076
20.095646388209257
17.717595928749684
16.573018763278125
19.818409182068404
20.13245178611841
18.86261468943767
15.941989628089903
13.841785313479836
17.029203672414813
18.683059478787662
14.181326124049454
16.37048014840911
16.93428749686362
19.711244916841057
17.936082281047057
16.77894495509426
14.907113188402977
14.517190785778913
19.31290646467858
18.50868202810413
13.641437608610298
11.041993823410184
12.248133523336246
15.246761885533196
15.39995249625271
17.101423596592888
16.290308824610296
18.184554034892482
15.747635287017358
12.037514206489215
18.56700570551709
21.740025557592162
23.99556098654563
22.87072903974998
19.941423666473543
19.23827683702355
19.156908347677884
11.637837664948501
9.64244769773067
12.347839622777213
17.163169238911028
21.06459184296427
20.52817845605765
20.501229095832915
21.723828306976696
19.934580296014904
16.813298326368383
15.229563242236738
18.314694527897995
15.52272180554662
14.55848886268249
16.0787761587722
19.20265221319129
17.023744411391622
13.668527683235022
15.090489715361596
16.63617605275986
20.972409119419762
21.20283386770321
21.98981774032538
20.023311709005117
21.17373828052544
21.351989814777074
20.235845640163376
20.62943580751801
19.277815605762186
19.32873596233711
19.258406950322826
19.392150247544485
16.418207778571464
15.659104821330509
13.034468544439493
12.58974399238403
16.523328141576993
17.361564894263847
15.261497694154022
15.435906479339453
14.964410336666575
19.680996876891445
22.29590927489836
19.49080861917086
15.367737348923399
18.566967756977974
17.22457523862511
21.364469557070354
20.48302809738161
16.08926473347506
15.959248717961447
18.03318553841567
19.130690003733164
16.59939060654681
17.965748976080246
16.510042476704218
14.520804708217264
16.419557117845017
17.485307574358483
16.40691779644797
17.210414657865055
18.69054931524043
17.610096674388974
17.466636614960105
17.265292979849974
15.168670253254147
13.89589992126571
15.507584640564778
14.090629647541954
14.247667839746008
13.29756206815296
14.750098199027235
15.204064218879186
15.962320153557377
17.224342542215155
15.824224553167836
16.808921714352767
19.25006143177525
19.46939000649849
18.137552346619987
19.094094945061556
19.854033969610228
18.741591547644006
18.981943706919175
17.80087326974718
17.255925128091576
17.284245927092236
19.888818328357026
16.356360661170495
18.50443815599051
20.372345323625535
17.129111042847995
15.780551161210361
15.725123746775434
15.044054209581246
15.239713888009527
16.312882476236087
16.934592715934095
17.23587272952267
20.1286102623983
18.779379264148183
17.43613367894972
19.56636239737035
18.861068074558602
20.51257662390615
19.79310277698879
17.821580273775222
20.126394276029025
20.324951519578725
17.91658938993583
16.97255597831408
16.37904028201703
18.790554627605353
16.299320449133987
15.151421112946315
14.636206174450566
17.776809079301053
20.426488731531855
16.863099761066813
17.408646732146284
19.823717450169237
20.021504597211752
15.880090109710936
13.908247247458435
17.595557656899867
17.71452118938964
15.171418339793474
13.367034962868937
18.412102529067585
16.868843835245425
16.899614619468835
15.086754205161467
13.414120634995435
14.499162171649841
17.106065845929844
15.307856777799163
18.42642885409984
21.410886421532485
20.34625174314739
18.051235506881017
14.193408992846807
15.348193240299297
12.528010388393083
14.344091229027718
15.74897759073159
20.5539331030272
19.534036667223212
15.097114556659937
17.89956720547164
16.704565516362905
17.80515178936849
20.93187144838545
20.53823653510777
19.342521955548893
19.914880329554208
19.11881572318425
17.034010967242597
18.23991160033795
16.902258163480454
18.597111738199356
19.212435963193887
17.763747038459393
18.556936940149
16.831199045126805
14.991013232541507
14.367737932781191
16.68669074405678
19.594859842133793
19.07483584276798
18.559415603392328
17.018658096803247
16.33116423163373
19.010642274285665
16.752432686484713
20.37893322196029
19.57672605424129
18.214523105854312
17.540824834282223
17.352133752843546
14.977031542572462
15.915191500640763
15.758814572159709
15.90726520581533
15.03230025104875
12.784865886995117
12.881886420018796
15.773097117125344
15.635330364741229
17.138756590036675
14.52707882673368
14.764490240276439
13.706983033315387
13.970476503972929
20.64200297075636
22.219858621103196
22.44662360375205
21.58456615123256
20.98483334319418
21.935303762198743
20.70772536337107
13.767172644756185
10.111840898499503
12.140391837024726
18.456807623219333
20.58651337213876
18.91191458020694
19.794084946825066
18.712619392198835
16.07763565272733
14.404640399533681
14.989931398577413
16.38953471269612
15.210234768303762
15.51908499412106
13.988707720128236
16.67740361099718
17.435605163640258
15.972924445753957
18.985644824805192
21.63632512122776
22.044907058760398
20.709465323984045
19.002944627775907
17.574777506051465
17.515218168327433
19.419277069747395
17.72718351743254
18.143098634795873
18.335911926087967
17.806933365075153
18.51623535463618
16.193510533670143
13.50989212121838
11.983046723853546
12.599529083487193
14.339907573478143
15.702848565972339
17.679712917912727
17.178265898237175
18.712165711231673
14.483544252564894
16.71113151547238
19.395571425344066
19.094397876227347
18.17384115960986
19.446942092549804
18.842482913300696
19.657343120230163
20.574283793935273
18.47700929478326
17.446982835549736
16.559077938878012
18.05310680767452
16.711190553084727
17.16831286836118
18.438440312289963
17.29199849908498
18.01518875508575
18.770633028901937
20.150928383432355
19.430878800732355
21.325684851815886
21.604242031092983
21.89443344452473
20.82919685837132
16.72927529462688
14.566498760652985
13.366759806373574
13.494776481848925
15.555914655791335
14.566892926665712
13.777235199997918
15.415046849088416
17.39287928628859
19.30062493112284
15.757420918533052
17.58092437212416
22.56895535011215
22.948418374018704
19.07391190332322
17.631401257144855
18.832482395076546
21.27743209184268
21.617254372597095
21.562151302475666
18.949321134346523
17.718706260656816
20.42520209513827
18.334365940167487
17.707043843076267
19.307690641016816
20.107240800727137
20.29615696255452
18.12511412399446
15.130380362717267
16.698056050336113
15.329377802697337
17.34136681077911
19.95137603826174
18.762704359299548
18.729535625935686
20.845967388495115
19.94659556041986
17.86991456451905
18.436179512408568
18.97854309648852
17.28750544325464
17.025788326253675
17.787484128897866
18.869041564310574
17.52435190470908
17.301043218642977
17.099560973348275
15.924331306541943
17.858892889847496
14.854262081334088
15.680357932098262
20.344232957729734
16.302214730222897
15.455563286276828
17.362601060078205
16.61591686283587
17.306273330356778
16.070258800374717
16.916279083855045
16.246870459282615
15.574770713643586
12.599344671165213
17.095340327138977
17.139656471257634
15.937473502760334
13.99729443403288
12.314150032036837
12.768226527742955
18.053758208834456
18.41743239563308
18.32913778643133
16.815775754694023
17.233929388889898
17.310301649007993
14.963906131174205
15.737812015025025
14.592005026042449
17.082033584884893
17.434999829896523
18.75566380183559
15.569275749012556
13.36513755808193
14.797731860999118
16.86734499521384
15.783817171993919
19.29145309883983
17.965747046108092
17.35044184865342
16.79430185142472
18.436887975990714
15.589645435445862
14.490419573332373
16.035083455800635
18.955777746472172
21.00994517912087
17.528266968895394
18.3169493470267
16.564829966687533
15.013886321894756
18.776132033860492
17.905178638669792
17.42008639893052
20.13542790084259
21.54137718572767
21.326857746911106
17.843312681066237
17.16165347742378
17.37032336950017
21.39715806026322
21.823875482634392
18.850124957514144
17.510826869975645
20.669859567964412
20.117506662319954
20.345115467648778
15.45854907446144
16.592234737796677
17.839070542078186
12.622252303842986
12.487133402781545
17.47585551606962
18.33780894107312
19.48521608156071
15.586283324899535
15.698698877665375
17.008205848958244
18.695597029239885
23.202766642263004
21.75990753708953
21.993052866528465
20.254796825054445
20.15819782201283
22.898475231942093
20.675328818479752
15.425772777469378
10.863578981577652
12.028136363426823
16.887310423236638
21.779480963548245
21.110848302761426
17.591448216709956
18.567945987737293
16.32020786939936
14.824610762712314
17.221350819755546
19.276730543342776
18.031889855407808
14.615875099332136
12.471092564245367
15.426487132871648
14.683671283841589
14.585589517107438
17.547805834459105
20.8755134485667
20.260511456498953
16.595782052896794
15.049857914765049
15.410420663725624
15.336449617785107
14.928839536953488
15.8541280799477
17.34410141171744
18.86729213153067
17.40663819932933
19.203569329210776
19.387715322267983
19.009873846645608
16.642695940033487
18.164652739717855
17.981387682262778
15.871387367414775
15.767916574175796
17.565112974974426
20.1560082143515
16.292566544736623
15.187284150384356
16.112276231808288
19.451146816978294
20.65387826984611
21.36807102575478
21.075848272731402
19.091535049608854
17.007903657926903
18.484179768326523
16.073075397301164
15.020873349735325
15.132595940797685
16.709551544543718
16.22292384893193
17.35218912411552
19.78494328761538
17.194353032855588
16.305872757455987
19.493723052868365
16.51790002447636
16.41384749735929
16.893853101056006
20.630476879828485
22.635092469471743
21.31296709037227
17.25085084932546
13.468302734715582
13.654149678009192
17.6779439855233
17.911748261068652
16.93975085047175
18.854137206921035
19.607166866451227
20.35216650715519
17.234181743382933
15.56135707685612
21.314024071717114
23.573476265947882
22.045825084149072
20.56473213979504
21.429249971161763
22.86424742932203
23.282671904670057
21.21620581372249
19.11497227059689
20.06613055367923
20.64920974713235
18.759731384858192
19.996300241174303
19.60570024039688
18.327425606450955
19.76663290985123
19.78792184461175
17.326535593781514
18.0199233033913
14.847108732523877
14.923281552806976
18.500154160697036
17.886193280336062
18.898142380467817
21.216462613281454
20.58002639546211
20.135250317763962
17.017910335957442
19.090723420678845
17.25885631858015
18.97060467342078
20.04294359086635
18.43478338293257
19.198045010841053
17.59269785524358
17.646540396496526
18.554139445235148
19.013148847960032
16.885437523205173
17.1828420431095
21.409745943705488
20.31879157441342
19.200524122684858
17.209529018390533
15.68431510626066
17.859960084749908
17.17191220937926
18.469389056744642
20.197938763461035
18.055632210744076
13.176543439738113
16.43731643722462
19.6216822331957
19.515551946454593
20.39216124744505
19.296096455060628
16.74998221698875
18.15657083407949
15.647648798234188
16.70010028445264
17.15366930227189
15.350921451058225
17.469723064401332
17.96503714410278
18.08947384822225
15.249084264731644
16.259317463542853
17.527268907616605
16.325577894463397
13.729838981292314
12.70998537463341
14.193857824144665
14.03792327220233
15.19679215733411
17.975974291782748
14.824207076349287
14.644628581204753
15.50278409951956
18.569346646010676
16.13949153490534
13.761277210374017
14.899280885893171
16.74507565639481
21.1889348385416
18.703833538951958
20.80977187850793
18.016261339942417
16.025065133173314
18.330109044139448
14.472919082387296
15.226166443249971
18.441442010657976
22.051713369724936
22.54374600212663
19.793682666778327
15.900786776323372
16.577845576410564
17.23131357636837
19.491232908254286
16.67034647677776
18.58703214134833
22.45718731485512
23.388772991681027
22.859335885183285
16.06234264344075
16.305414969599255
19.530518320325168
14.564458202683907
13.995033988278534
15.525545597453386
16.52868197214899