# vtk DataFile Version 2.0
Really cool data
ASCII
DATASET STRUCTURED_POINTS
DIMENSIONS 200 200 1
ORIGIN 0 0 0
SPACING 1 1 1
POINT_DATA 40000
SCALARS temperature double 1
LOOKUP_TABLE default
19.361391072728292 17.858757733332247 16.40907462736504 16.06660009257836 16.216907740796977 15.91994936133013 15.156649698246284 14.172402795514358 14.102809752012815 15.268660521755391 15.960527466077371 16.058429819832625 16.03462292900532 17.37672262192588 18.94894022990094 18.675509060889894 17.223545192808334 15.863046235502141 15.691612977222478 16.495974658577932 16.789502997276145 15.950240248472534 15.296171734844851 15.498655697330681 15.935460686843454 16.89570458148446 17.86478520883405 17.424056902147008 15.814247220685498 15.148505382355403 16.36410930823762 18.174731108960057 18.537121857017716 17.169412529325786 15.613912306128908 15.030940492466476 14.73706822555188 14.640658291116905 14.638327154880733 15.049272956320953 16.489908978924642 18.070846299398784 19.018841209476236 19.380381195092284 19.79400169583385 19.73000098038138 18.66637494455498 17.374731235335556 16.35615755661399 15.42629773074809 14.556409960286459 14.011755259576486 13.758462329093115 14.403453226861483 15.678553957590271 16.36659369505987 16.2857297439844 16.205464254460615 16.22803047897923 16.018713449491596 16.092479345967703 16.431617812288433 16.644234700050415 16.06110604523836 15.418084862654384 15.398760330708566 15.94861861073523 17.30004134843241 17.719564881640505 17.417875535909193 16.688168694524624 16.414025606844362 16.320996718226493 16.891773157497536 18.186844869562623 18.661833426278292 18.327935434078242 17.63345415407981 17.25961347829436 17.245162789242595 17.65816580947763 19.127579146398855 20.03076699481393 20.099250011870243 20.229354933285713 20.694843431833764 20.835581450326124 20.683313860912588 20.61842980991006 20.919277802076962 20.572412391117567 20.177716505023547 19.75679313149396 18.965926389905178 17.521669778425053 15.831138583722408 15.520503719682521 16.177762943998946 16.335675098861138 16.908559838167303 17.80125728178148 18.632160020229918 19.758024111763113 19.912072175879064 19.194723111655932 18.72585796116732 18.99712708047495 19.829565648030925 19.89106795426896 18.44625869674398 16.523175707104578 15.28538608557495 15.369373574176084 15.983464169858316 15.852989654521428 15.66919991196441 16.01037173704114 16.361325527498774 16.737622055938434 17.242401048824664 18.108464209525454 18.63947029791597 18.938964018340748 19.719478441218406 19.82002922883156 18.748571973290083 17.90488228111108 17.249457765016096 17.25291261281493 17.27556652819319 16.606037818587744 16.81584473653168 17.858683459248123 18.942970650406902 19.11953649887078 18.42900140682578 17.595272909743763 17.086725677312533 16.053546819132514 15.595557900031427 16.143125719153282 16.361642982308418 16.62423569850363 16.539177902132877 16.373318591557066 16.053945002721008 16.059840407500577 15.895160933604243 16.349250790279246 17.845654488692475 19.77866951773363 20.66555644576868 20.235245216812075 19.64124816453174 18.871466314659294 18.31656216855398 17.95259255325323 16.961359770685082 15.716006794117462 14.91973701047383 14.989030423441585 15.992686512095442 16.74767342492858 16.97776588059685 17.07555979906819 17.63707389809496 18.117139185874642 18.626716511417634 18.87764921417114 18.07378631683379 16.794810769212088 15.720755619677814 15.452631856969402 16.39733437088846 17.688025319095672 18.638323168778776 19.036560409768143 18.173568054670554 17.256299048320045 17.16895427446871 17.55899616485546 17.2706246826365 16.292222199917454 15.486681295346196 14.860817879605735 14.489791249040636 14.33878733626217 14.645095021833633 15.340220419660245 16.276197290761857 17.55842162969363 18.675746228404034 19.262239661711078 20.013641844020963 20.409962654829663 20.173868753223346 20.501001352980463 20.473076585441795 20.054485566039645 19.884550829493424 19.16901295247401 17.681235197077775 16.382577765941043 15.603524070769076 15.661819528839919 15.385495966440837 14.237119997905172 13.478002952476416 13.996147525192024 15.311480005210145 15.677023679033187 15.382086041408975 15.5500352094634 17.329195869758024 19.357421120476964 19.182877975311477 17.747160574708204 16.65833848468098 16.900601026477908 18.02750748187132 18.027262243670606 16.9322562810774 16.45092752821549 16.88647794669174 17.34156131066629 18.384334376971825 19.23962900676965 18.374610586082056 16.287772194353895 15.550192856766303 16.801330861779718 18.354690252083437 18.46286393210079 16.977676819551302 15.257704758809068 14.740244621982669 14.832012842273958 15.298038661448558 15.634196218733692 16.071471293345553 17.267473600848437 18.640407102478353 19.594889691253282 19.811788738943395 19.7629542802879 19.46964930331852 18.418183599220235 16.919498980260652 15.60622998889934 14.590546305166507 13.808427769655692 13.40052958745546 13.627338574960783 14.735742807383781 15.95178426902357 16.58349027923409 17.15991010842943 17.834426543849208 17.99615526194345 17.076751438043186 16.35492252187733 16.394442514065528 16.509626908503794 16.09641113384926 15.765554956076599 16.074475422946346 16.599178647493027 17.091718110245605 16.908659504107742 16.841861005062196 16.800081533748436 16.8531317235736 16.267819550981415 16.528764593104636 17.925247528829257 18.39042259910699 18.100096659421144 17.814123915755314 17.57973230796441 16.916580909673296 16.918845650710082 18.59213896247554 20.136900480387073 20.980495589329585 21.352434153661253 21.20026510542577 20.369177387651273 19.548742439956207 19.28695765126956 19.849492560722794 20.269126819297025 20.513554140238696 19.89107256372369 18.449415090520798 16.880495036497845 15.447163720225097 15.448759476480983 16.042087150943683 15.919255741849533 15.985851604221933 16.48320138467171 17.421020157155322 18.825727327421955 19.30529122832499 18.844756418245264 18.553558736838436 18.686477993836625 19.07373494660537 19.043131291969903 17.665165590711926 15.69861344503654 14.468808796789451 14.996541011793912 16.445605022035632 16.84850842331118 16.707175924430654 17.020516853165358 16.99123178012667 16.63719327279242 16.673822885124086 17.362292449219744 17.97541611334954 18.38882243696576 19.33358363416856 19.588321141157333 18.376733660291205 17.451677672538352 17.08309558490347 17.17799645456475 17.086454008212723 16.60816709947006 17.155911746310007 18.490429169111266 19.908480879115174 20.019534085758075 18.61291812120537 17.12142651387228 16.23359984975444 15.327353188370704 15.249049042530668 15.728397818432843 15.687136974760735 15.5819274674564 15.507901687032149 15.664336094197225 15.648443504325009 16.15096588793955 16.27086608292512 16.11295740974601 17.028863388316434 18.76808716197272 19.664483442492976 19.28261274720002 18.600553946306743 17.63529309155423 17.44687536181434 17.60269925140457 16.78046953594485 15.553319640000312 14.882606712812027 15.04807115887836 16.06276164978461 16.527233312666112 16.43736674647642 16.414214244561546 16.83709142909762 17.20564535196708 17.88809096537351 18.7216127001271 18.514172594072054 17.686363053249362 16.22475583926964 14.867708390279006 15.17994064451358 16.275254196607715 17.128714937798264 17.737332330542234 17.469982852566908 17.089526689520174 16.959939671974855 17.293733347222556 16.87360339347987 15.685252297411228 15.284783588526075 15.224280220410966 15.015736677951827 14.749177505342594 15.082060878784782 16.100243435172846 16.72881129527945 17.202848859873633 17.77780512476902 18.435807654629706 19.36673781913483 19.771322291247323 19.305696613503446 19.370845072484407 19.426197435718546 19.414714975040795 19.646995832942086 18.66360691343748 17.672674935434298 16.66463682655405 15.861326631537034 16.25749848088825 16.24463600808404 14.818580904473228 13.848380334909786 14.034041426599858 15.025373004923141 15.466614199894924 15.32240433426374 15.79116690627375 17.625554133305027 19.618733921410794 19.556152740384416 18.537999973301652 17.712969638704354 17.670710262617977 18.452732813591627 18.12840648041912 17.322198132985285 17.43283276766942 18.30459502784732 18.896960295458076 19.686787635835568 20.08551511143993 18.951300544809875 17.055368351115057 16.63648284174611 17.741339690740496 18.69093900473277 18.43726315643249 17.309529331900787 16.217944366980287 16.050676133205815 16.11112706011566 16.581806236646432 17.064485948292415 17.390486782160114 18.090488702322816 18.943044002546632 19.505900634171528 19.68879300157441 19.687055188198293 19.214427838626694 17.998093767294858 16.33141677531123 15.07118697265254 14.420763226471175 13.946954536765581 13.753303931531637 14.486224992007939 16.01446550188289 17.109143413748782 17.748882086101823 18.84218385933722 19.879776499504096 20.0766547797378 18.85490523067284 17.354043306996218 16.615700703580583 16.506481917902924 16.466223154881508 16.551645396713198 17.027495045537215 17.352965046620145 17.188373972643298 17.072843223982467 17.699928359307034 18.252685947490445 18.181114072045816 16.8702378980938 16.1889826847213 16.697298683612484 16.904263219597095 17.100176095319007 17.615805479868637 17.78191674054084 17.137512416122263 17.100923204207497 18.613092265607687 20.226522290846976 21.445405634249948 21.867768637710224 20.996624448792037 19.23737557222947 17.88923831380437 17.43212265996938 18.262994676461915 19.472885662985966 20.1577419638212 19.408331033899863 17.68064351990903 16.17446671046498 15.309426647609696 16.002066531359887 17.052082831332477 17.127224773236712 16.799588765401275 16.860455644464487 17.63045115213827 18.827600401009754 18.880403338775782 17.9244524143709 17.573893311273185 17.718173478626927 17.747103104404317 17.773102977730005 17.31747692191905 16.345807812834096 15.513889248028947 15.927297167045941 17.338677531534287 17.956869477595852 17.863217089895592 18.105293071377602 17.917831500919828 17.298803240690408 17.216932123219337 18.018115327108685 18.93940436791727 19.569118621954228 20.503011668613535 20.695596534682384 19.255028208701784 17.785664261632032 17.235521229814548 17.395946591183904 17.47233194112248 17.346662777949636 18.049978213698704 19.340210166210625 20.70880494555675 20.678004767297857 19.04509883347893 17.34391786611653 16.28607675359992 15.515623796604416 15.386913208681056 15.70865170774709 15.497234170172273 15.300308862282318 15.575245042642155 16.076251977206187 15.951849278357674 16.42037349415578 16.868329328736323 16.293199638650336 16.50047625180345 17.89445159788801 18.53592265530669 17.928028112 17.59986393010022 17.577235794984936 18.48466839778187 19.351217642169754 18.74688822359613 17.35307444470106 16.318355811996497 16.02343874282417 16.118586490369143 15.743947291476614 15.368274126665609 15.596967524354504 16.382965235711843 16.799498797891346 17.150697444679842 17.85416997443057 18.240892923300674 18.223756555401437 16.95719542993191 15.180378810218581 15.081761981473356 15.90983679791649 16.22179810976187 16.383961666791272 16.530965786978687 16.865053698245454 16.726729313551086 16.730718725374285 16.329199225226134 15.213621940961563 15.15663168114793 15.819540529353553 16.324355777296343 16.26816202200771 16.428677866764115 17.26553204907108 17.470002349935957 17.367196187432402 17.827444333863546 18.753724542178894 19.67247117693177 19.593886361036514 18.516801485889758 18.101127171056863 18.24744970227882 18.470762553478373 18.85789494652852 17.07660381375006 17.170934405280143 16.788322977475037 16.296437314102945 17.1955150411444 17.736686570615056 16.660466874899413 15.503453696600685 14.820678525458689 15.070709272118304 15.469711493487162 15.658525361718866 16.17176307539333 17.64116355852998 19.687195473791274 20.225896820637114 19.702319212651837 18.61627981416265 17.728597152442948 17.778403176862554 17.38283108560069 17.473351994683274 18.309827582598313 19.13952354946419 19.437787246358926 19.84333533226262 19.921441056015205 18.75829235929451 17.33651055269579 17.136211390608725 17.850907065412876 18.350059018004533 18.193925985730633 17.66689077592108 17.150165988427954 16.971239754394077 16.725104150590266 16.86156461558026 17.209330945967043 17.36713025967986 17.84880220727825 18.171127699820886 18.34192179008684 18.781811893419842 19.333482342438927 18.90930852494829 17.676912568320624 16.238874989726018 15.67323800029668 15.703815645292494 15.35572849802387 15.007466704160912 15.849060981881685 17.45030230837291 18.45659674652886 18.990887404265447 20.118065539084085 20.948642839600375 21.1526746141069 20.34457423739075 18.742256068280287 17.364871776163092 16.975388236013462 17.050977281972127 17.114742720374142 17.371244267594093 17.507151434805028 16.921250578001647 16.84606071213857 18.07548552536862 19.29202347754585 19.352390029727324 17.80559256910359 16.244924702733073 15.311442202417782 15.009707316460716 15.707805988918754 16.817457751791565 17.29446190721311 17.14694846291698 17.73443629799125 19.3963242147346 20.754005508446138 21.702462622949145 21.959506016974345 20.71737412327879 18.69169249642208 17.400749033362583 16.841651451213295 17.59181844185143 18.6295101597485 18.802337826045356 18.017511887224753 16.944956366913946 16.09989928052947 15.800723858205311 16.756017061580565 18.16032531547571 18.655995402689204 18.242343024725738 17.961613239520048 18.15551012746881 18.61507537892298 18.091977337268908 16.72858671430943 16.08971653079878 16.24167115823411 16.343205059819233 16.469393089719404 16.929724788274378 17.216127067071245 16.96919423922391 17.23192977541672 18.510275217653408 19.11511313706991 18.835313417688802 18.784425947275714 18.61893082418687 18.291573618313798 18.583000523698786 19.672296685608742 20.714564056402942 21.493269545339817 22.017418174785455 21.580550561852366 19.75264567418729 18.064699700794275 17.687319171783017 17.947938889379152 18.008137917287097 17.908197074416996 18.495465177949697 19.53818335483643 20.501971212250066 20.18860663716888 18.55783878383734 17.14881067821881 16.564925747914145 16.236740672933824 15.985786713043595 16.225725521382948 16.22168838456578 16.315737066663807 16.99307193518477 17.423546155285663 16.81278281773415 16.823549244042663 17.42486731269391 16.991988380292778 16.781708037116445 17.53801863671761 17.795101651047926 17.09868602783942 17.113545808033383 18.006902769442096 19.516410295841567 20.706334340323078 20.536985128625528 19.52368501266199 18.3705488440575 17.631428588068665 16.841272958554246 15.970893940883707 15.303404225303563 15.186726607306879 15.815521078277733 16.15028833198282 16.200184935213386 16.64658219457783 17.520496226442358 18.165218696591463 17.39517070170434 15.969361221482592 15.99734450317675 16.71447725496229 16.348982960492965 15.808378781006445 16.062689333986224 16.982592981421327 17.333546427297343 17.366193279497594 16.953718980208716 15.980889274322752 15.949150375581878 16.566252863525822 17.179176682620927 17.125248313596177 17.02245070211338 17.361566748541232 17.2785682349946 17.431122940548928 18.491410003718713 19.725147711843587 20.07877322215305 19.065189593348954 17.2689355204938 16.61995489731702 16.72342357772549 16.63479866017479 16.7582804196527 14.820504843504985 15.606205315597654 16.189130126428925 16.59482873240987 18.126110096931622 19.146882937369938 18.523037063250715 17.268343778727633 16.094288337962777 16.110311166074244 16.657230923442864 17.041473917174667 17.093625517790972 17.783677623657972 19.746489624197043 20.94940545248922 20.940969798706277 19.650445759758053 17.90395803714371 17.08960393694636 16.626333814783788 17.55173061966204 19.28444863392492 20.183523313003185 20.058228038483115 20.014672244789036 19.934335049953894 18.87014548349648 17.45588206569528 16.900338990118204 17.187672503262657 17.386175882415998 17.271490370348435 17.123425798692587 17.103046182501387 16.89261530148461 16.530006915664412 16.348401909955868 16.33780312348367 16.272833134357622 16.597849041456968 16.611116944808607 16.748967542707376 17.65938131360429 18.656137462452435 18.375135677004373 17.455023842165573 16.76116439666479 17.167262041897075 17.532537493212146 16.8533333612874 15.998854672592504 16.416082807713824 17.584349688867785 18.630425576814286 19.53941342216 20.65059577185968 20.91242803262851 20.682969792363473 20.101414812759746 18.81215125807421 17.38400253396395 17.247225862850566 17.869519307313666 18.152425193671764 18.102729882695588 17.758127910403505 16.581224485301124 16.172534243055935 17.62438155133005 19.332353256311233 19.542887559791986 18.22042546772594 16.808989650692975 15.274477692907059 14.64982307498452 15.472339894616871 16.44482534661477 16.611403291159437 16.694693225267233 17.830336415538866 19.606245283718525 20.788848610982974 21.476681818732214 21.81275605708254 20.668977488261472 18.636858637425515 17.33483171871251 16.6323550315277 17.14484360746935 17.53193014055641 17.030952189895945 16.569773836898307 16.779372337644826 17.136564826007906 17.454737905595266 18.1189490145767 18.952312017089707 19.427214806956027 19.17244427776827 18.9340809112478 18.70524683108472 18.37648123806987 17.50004884752583 16.319192145641402 15.681149960721 15.812259795589576 16.097548557643016 15.895529272302703 16.05900232596845 16.767778408866192 17.046222184725742 17.7113049979489 19.188889739728573 19.65648783521449 19.113856549474047 18.78489799721835 18.49549029501987 18.39187595394823 18.966952466357938 20.120968468782873 21.151240670395474 22.024531915788607 21.92153926347189 20.64064190490336 18.534975391262737 17.349454803100834 17.817824657744076 18.610575389197844 18.644515301506658 18.439793601166294 18.873358628251957 19.59471184199184 20.01699511146104 19.627338946292184 18.278868835120967 17.31684733603525 17.122201900892442 16.80137270110034 16.259833087462 16.382883009706102 16.765762282856866 17.479125705380913 18.583693031971656 18.821967658980693 17.85216712284751 17.382950712480035 18.069391764839953 18.381772578324444 18.274822279023237 18.294386069374895 17.849183468104705 17.037471992569834 17.148329011800584 18.14830589700941 19.391625489890966 20.489530133153476 20.847617426868755 20.592103152361076 19.823644000886457 19.225546391142736 18.55376221418845 17.856994274032715 16.791350257826856 15.784655149561017 15.73293593832552 15.665480342072406 15.646846323065422 16.098665009454066 17.174866203670955 18.04997323101808 17.64605087119546 16.650627646319254 16.92679292301791 17.82038578472127 17.133587318251195 15.885537689712248 15.721614656817986 16.468376156575854 17.304060504972487 17.898310226611617 17.73748429005404 17.182006406316173 17.212290944959204 17.38841029581665 17.65107272843151 17.58552216507527 17.226482043739356 17.033699494785232 16.90462723559717 17.60606349527571 19.059809947785848 20.147567007067764 19.696836630479396 17.97393386527329 15.854879386732403 15.060462081524705 15.054519445262798 14.8532607754032 14.555152395554952 13.475918410146 14.28418672767481 15.668264679576604 17.10717042995771 19.183217792013547 20.313964886497736 19.915554819527888 18.721658864601046 17.48256139700647 17.47493174769502 17.983299499077027 18.133478205294214 17.674877307758365 17.92404884468535 19.841486371478855 21.48555254922722 21.962614014310958 20.855744917720415 18.80404976749137 17.418514960217227 16.78889531972835 17.83723283501377 19.664341285358645 20.37915496078015 19.900121401125922 19.749095261550856 20.07818726072283 19.815434788346405 18.678323624927767 17.64569512057965 17.45049572716497 17.298138173655115 16.918412253920113 16.636211559949626 16.71153469007973 16.304284916633083 15.949891880716981 15.991413223365482 16.017925995793345 15.804921958599172 15.519312569896726 14.892365236323574 15.051113281861939 16.441814986557848 17.62220598709546 17.4273393485668 16.94430917911404 17.14658291742249 18.370854001725903 18.843779880092818 17.75979731777269 16.39954993596182 16.214986001613656 16.971886973441094 18.092095182666085 19.468935230453106 20.228351775144663 19.725646762086917 19.025882358101914 18.64498025965325 18.078489493803488 16.95524314870817 16.837968166560767 17.984732146902413 18.990193157013117 19.457398513574894 18.963663360265368 17.25560526365903 16.077659576359174 16.873757776240105 18.462396205071954 18.758613183451892 17.941813606516188 17.4183150129776 16.269098127214313 15.571623319308683 16.114338595202085 16.551186114576943 16.250602977326597 15.951984714231996 16.786373223508733 18.398815680947795 19.76111721531479 20.765824175270215 21.320858166924 20.395089261779663 18.499796309142127 16.98585922374771 16.059018209166712 16.359546843665434 16.753628186321347 16.723435618687223 17.056959023090766 18.070433723023893 18.953848190242795 19.299369232896485 19.287744597928146 19.003739658441837 19.241256219575472 19.42935218527537 19.546066361189943 19.2208929266464 18.51338916608898 17.561078187995896 16.968099874324498 16.818401037313464 17.200292251001517 17.657914967327546 16.839013957829245 15.904837910028576 16.204043377669485 16.631553414557786 17.786340764161608 19.32315812932241 19.315344701821864 18.56961689696108 18.41101987223827 18.460358094552255 18.61553600395254 18.882065166072824 19.465971905744475 20.319840530298496 21.23934817362267 20.58321149619947 18.716142906601398 16.576591263594505 16.087380894869497 17.453011781812094 18.937672265133564 19.054193110487358 18.70255191838577 18.98034192100092 19.30291721229862 19.112611686997262 18.932537439679926 18.4611095261944 18.044134696914774 17.64779424485232 16.79996763927357 16.045410009153574 16.240245150098847 16.86352433317219 17.88853346293947 19.088066849300297 19.297927860628768 18.445224467503063 17.85848816493819 18.504468960569543 19.367880415163654 19.55744557528052 19.006648922764473 17.76653825516109 16.797327067690322 17.003155352647436 17.518913970875158 18.05859408835118 18.825160374400877 19.465869846447518 19.93169632580789 19.952455038535327 19.986717161301613 19.978056126553714 19.60084797578831 18.321849167761407 16.987930646375066 16.77438513084693 16.682767416370655 16.685012174523255 17.10620445389068 17.946401262158485 18.503137589243483 18.03416207235503 17.303882843972104 17.684446794831235 18.60174943306517 18.056204089481362 16.598007094150283 15.769409056131682 15.622495378454605 16.38040740056553 17.62173323224447 17.983477063666804 17.852991088128697 17.830260234654546 17.7135205778673 18.099327365229406 18.73637401508966 18.668370882580515 18.022415709947417 17.45652883992839 18.030618909902653 19.263514001855267 20.08003397973153 19.32269627025082 17.4290994374511 15.28127193814738 14.187493897021334 14.08974353266162 14.170130547318026 13.632832426545303 13.88431460385615 14.107058062087878 15.324697476997494 17.208173638271074 19.56860417350199 20.645930266012822 20.36888909390052 19.361612953204002 17.965060930472074 17.547037912819555 17.82651470750733 17.798382632685584 17.116900916830744 17.05970968873421 18.647626688372302 20.465326677617178 21.571799724986818 21.096315033407652 19.223166836612606 17.443763061764308 16.678592875301632 17.447315581719415 18.88970966468489 19.594402657773852 19.4758286955639 19.73401878114094 20.37302559970329 20.62781959850542 19.91175863981262 18.489145141826203 17.326716489464797 16.589620608459395 16.23682875896843 16.1345996434423 16.15750773922724 15.710306321224719 15.773503197591127 16.37132716642737 16.554298584325156 16.26445518891853 15.278564664096733 13.951036284931094 14.040836336426437 15.617199452897365 16.860711290892485 17.05102310687599 17.046342981984 17.475192867959827 18.72285152682272 19.157143799252037 18.046862977992784 16.839979140224877 16.78727097343891 17.539193997579815 18.256078733259745 19.01664004931314 18.745693917695363 17.59057931768896 16.76345912476062 16.97540543489131 17.582602376140017 17.325258239813028 17.26800801048956 18.308630639743473 19.30208761898787 20.15340352447433 19.889891819281484 18.31279273990254 16.735273427033157 16.69270831070291 17.8763587344141 18.40499202836137 18.145670604501444 18.220632909066524 17.580284448879283 16.95132970686393 17.232730187356225 17.44404753002908 17.174408465963154 16.501337548285946 16.507108397810985 17.47260544907445 18.611420099955733 19.85129250881135 20.47537761822619 19.690153551467876 18.012152454772263 16.405937226251577 15.605504533737703 16.198059978576072 17.272389110381102 18.088538218599872 18.772120353368837 19.396231448212163 19.841905467041173 20.041459363174067 19.746743203649544 18.746738260049817 18.613246088287703 18.86662161879157 19.35622841236551 19.44565069218674 18.832559039945263 17.89085609814634 17.72446719422343 17.88630075388432 18.52316987392904 19.001643405977955 17.82029417240022 16.398881112257953 16.567009237110174 16.987371440771636 18.142036295719954 19.376432428931015 19.095063438291028 18.594261837629467 18.733874900535476 19.019824826083177 18.950482708481847 18.36167236660874 18.229965675135816 18.927490476187618 19.95458419281946 19.164801895962167 17.256205450471512 15.630037144881173 15.90584780741789 17.659876111960855 19.157371490982076 18.995493412289257 18.367104712678138 18.610991014982922 18.696408216996748 18.114517719658345 18.16482246555746 18.55920803874879 18.27329753916307 17.438574650786652 16.41432511472968 15.641234407107481 15.746689188440946 16.157702304718374 17.282321890984164 18.711114775263237 19.280271498143563 18.584941308640392 17.91687928232605 18.386406446364152 19.256329051970145 19.62247462097797 19.190758150164328 17.994152427748897 17.02292643914983 17.109943564261602 17.061067586579014 16.940288037116847 17.136831899147488 17.706904351278865 18.54786679622822 19.337417972259342 19.85001470219422 19.993731088372822 19.81570908915895 18.841106101885128 17.888867394642816 18.059783434181536 18.559668334365167 18.64809124353668 18.62480510903403 18.732048812911803 18.79436322965079 18.41825626428051 18.07394546364944 18.536947109145046 19.314549895736555 19.237861913121563 18.116826758433408 16.864109626311997 15.812892568513506 16.038855068311825 17.11372169434193 17.29570236849466 17.265113059475592 17.45775636692479 17.75422346236143 18.66962566095494 19.74996137803172 19.78179800040352 18.84281191531052 18.108661511215065 18.492391997362216 19.37517042840581 19.73076189813223 18.921840972446418 17.440469159050576 15.722388659119876 14.50807024972606 14.44868351532687 14.902916869293135 14.373056996523056 15.383916363765909 14.956240412111148 15.528548089940267 17.084490721003583 18.9990371127102 19.818180634531277 19.748404544695774 19.123172958770866 17.686805622584128 16.77308286448637 17.06754179998424 17.495653608978706 17.055678995798953 16.547640049631152 17.107082134661983 18.314400099668898 19.575503667275264 19.680454897827637 18.356833809953734 16.493646544355187 15.594286687300983 15.897736164372793 17.045694276868588 18.19134684152297 18.773051592168052 19.202966988752404 19.66792780659038 19.939946578802587 19.74017542519523 18.605109757254457 17.027685331789428 16.116115697137342 16.139821515627766 16.222396786592697 15.741342622966418 15.127873175407792 15.615458437604069 16.484671018506226 16.569633262042508 16.104871338723235 14.96031079857488 13.732398559144206 14.036825947537483 15.469269998156868 16.567729471882984 17.253921781737596 17.634534072452034 17.781601598340774 18.647449053455226 19.24737592215566 18.48542835842276 17.49160063302753 17.841931663037315 18.81242704443021 18.977402199735216 18.51057704808045 17.068318303214255 15.607107890249711 14.78507924912872 15.485217094311546 17.205266073861747 18.063117256527466 18.609023334316795 19.26702251638541 19.334318215041975 19.616194154737357 19.449751082997658 18.383560827386177 17.064296474257585 16.879964468360736 18.130277473932402 19.083131757550202 19.244424522025344 19.340847585764323 18.756643175770396 17.734409257042365 17.3972193517046 17.574483074772782 17.870237181786408 17.36801281614264 16.7369450371593 17.08270690009241 17.98408914045272 19.319761773167166 20.156592585243587 19.709856760169725 18.214499918601703 16.52289190449816 15.929426990530194 16.790979593171173 18.209366993313015 19.16964109351672 19.45022751704556 19.158326885046154 18.79787336648263 18.925744121086936 18.961260566384677 18.04246210770794 17.589025224281343 17.50642467833031 18.01326519331099 18.60118292673508 18.542977571563636 17.855465289934628 17.40815651525717 17.10890533846112 17.886169792804637 18.766130732899594 17.956843072936394 16.85618643618155 17.19148769961545 17.40489388512239 18.070325435783488 18.99099837880106 19.039652438960932 19.1988766517904 19.372575462667225 19.183119053585422 18.36925085377324 17.03163949921407 16.615466482178896 17.421612083758017 18.627246457515298 18.18305845604587 16.648559101605386 15.68307265802093 16.506996324172185 18.166599035431428 19.096618823781046 18.459666205344657 17.649222425739076 17.946644290511237 17.99540080005916 17.2997246388142 17.42849818594448 18.0475114402274 17.425840600997326 16.280401526027287 15.533526074402861 15.007431953136118 15.10362060662437 15.309129156938617 16.497454380339402 18.374667102891937 19.388730423956304 18.55443189676518 17.67252520371047 18.054393029093305 18.754106987002213 18.934107362933304 18.664068936509697 17.91614287000611 17.151184687789378 17.042560468570397 16.807150690646413 16.57094698236248 16.624128039980715 17.210486220955403 17.98229829435549 18.894369084300664 19.261300585132158 18.958535534677793 18.984574770006265 18.55921333667986 18.14728922180355 18.87775317336139 20.238028101685387 20.586496303863218 19.782754948780546 18.816673681649547 18.14500710443189 17.853678889666437 18.158426365858965 19.07899407825535 19.753325046561642 19.852257142143717 19.15423215377022 18.04089023254516 16.73973120603299 16.430459615641027 16.8945903887397 16.82396980084756 16.987591637114267 17.419406311193026 18.0512536256961 18.904161921709296 19.527099389743707 19.163858282675037 18.23561378680425 17.874413853503647 18.326515220953564 18.72978685721594 18.52743481387589 17.94953906860978 17.563013617360372 16.935984772057363 15.93748459740893 15.849207432852362 16.453220299438563 15.978216046415