# vtk DataFile Version 2.0
Ocean circulation t=10
ASCII
DATASET STRUCTURED_POINTS
DIMENSIONS 200 200 1
ORIGIN 0 0 0
SPACING 1 1 1
POINT_DATA 40000
SCALARS temperature double 1
LOOKUP_TABLE default
13.340606526074863
24.179015832749094
21.43876821534336
12.285842470372655
22.11199204013164
19.050184394861894
9.608466948339315
18.210839180523955
16.6404975326061
22.249473495511932
22.48559132674815
18.751722633964555
23.868462022298736
10.278288993832335
11.728194229205675
12.67010628420281
18.36402019844127
19.16252432501272
8.712041837272496
12.126199942089068
25.553086755524088
25.078728917780303
19.593504035270996
20.911540628114732
12.700439193092933
13.177783702353452
25.834579612446138
24.938943176462015
25.731634590862093
9.50334638245731
16.0965779193794
21.582550360813215
15.223766666492955
17.63028023492665
14.853189812445939
23.900930058040455
17.404582529176977
12.129387004012543
25.27265288353691
21.589032939579454
14.102392048217052
12.847494229543988
14.390533015548698
11.832584540958129
19.898955552896386
13.403722963232614
21.401664503272627
12.16815936491383
15.233777983085075
16.702677364945643
25.169309230011333
22.95553488593957
20.88946778247165
21.895211399921997
12.073819513256463
24.75271959091744
27.009991958833744
15.536270631713435
21.59020610923291
10.077913698711706
18.685261709349938
15.208433961688224
15.56164917883696
14.549580774602202
24.762181888625776
19.488937021939474
13.425386907203563
21.535240330786774
10.539434073061317
22.366030700383874
18.202621157985437
18.64580220678572
15.344071171371482
18.123185511326174
12.932620323635163
15.687647048406838
19.452909281328584
19.734185046475318
19.130079316443034
25.356299247683893
14.536496339695574
21.72735268465744
17.071857563261794
24.166835459335914
26.313852753629078
23.204041833885608
14.551847540113826
21.089507106978253
14.09294857980229
25.304428176126123
23.210816451234194
15.072762304714153
12.077231276056867
21.03146244403517
14.051650919995962
11.148333260846442
10.369647569725858
14.494406789285899
21.46386663823719
14.291862199290486
20.016744262170892
12.43612395812201
19.232404342162102
17.40547964869361
11.609288205219402
11.532654726476604
11.126761349814096
11.289802284012003
24.752426119484568
20.860997554390607
15.302668018293545
24.021654175990623
15.636018628146829
10.688121845437758
17.013512657846043
15.766202983078468
23.659829271829352
17.591239253982124
10.969156155088372
23.577239381426352
23.757708386789236
13.223074111152986
16.67200072857379
17.784226499708403
19.220126095900337
14.87577249160872
10.881275897034076
21.78065562035751
16.23034321113133
13.119835841226323
20.244951427393858
14.23053674960097
11.728515410212896
16.301301697898865
8.757275067261553
10.020953418582407
9.979825320832903
17.233158965456994
16.984037760740478
13.505509982467512
13.813979133439755
22.604837121731745
14.606851156150027
18.440890399049035
13.682408899610687
8.420773188982889
12.05424912233244
21.760217907733697
13.241299093794112
12.796591250196087
19.52615721161269
10.031654130827164
11.491017886266727
17.650837936557753
22.25102534158912
19.245971783493307
21.316159994435466
20.013843550445625
22.42444689367482
15.495658937710543
18.40808909988248
23.531759014475192
18.450608980362585
20.59649550510463
14.286273209302266
25.599728320282043
24.2365125220638
11.018519986092333
18.516974045331207
21.49813237784061
12.650077151878305
18.71323138436984
13.162512555330128
22.902666154053748
12.978911749297712
18.44645614456932
12.03956139908562
19.249473881764267
22.518737732242077
11.343813898760045
11.029450581691297
20.70286103501065
26.11735959942439
24.309781555542703
21.79908313579363
15.289259032058384
22.501390013349507
13.223911181230218
8.498278032687457
17.68154260318149
13.578842370606367
26.39925957071332
21.835637350435032
17.649269694596256
26.613711422670384
25.989303696415295
20.595080299496683
20.087554984417817
16.315675675150278
16.17902907861924
21.778500146795864
23.140553129499164
25.048875480839325
19.360995038084443
24.44600905367715
21.82550060153778
8.92011112734863
14.464476211658255
17.54614194567619
14.441930886453541
17.040236157233732
17.105424595308612
19.03097559873291
15.417530825225016
10.136415528646499
16.00247589090517
10.036703902299331
11.829518220070351
19.506506367225438
21.393313583934813
21.272931632015855
15.952838032030012
16.637234149585595
12.624324083181126
9.594939753403766
24.52221024567025
23.862393078008363
16.815928486030245
24.45284088791189
9.445526436871457
14.98350770217475
20.052777853537012
24.74408226040528
18.406939213385087
16.423666371240444
12.42197711456063
15.895746208097954
22.926510746506388
20.41147233150848
21.966692816905773
20.15126373837665
11.462669491292319
22.9173340030047
17.102928908734537
14.84684891701851
23.7678996442974
25.851629140656794
17.19539297641853
24.316020642846844
22.442082735231924
20.984443463055563
26.115377215969723
21.26546194369231
24.689307939076066
15.167787326454519
21.742502581477925
21.51720360715091
12.184166567798556
22.40903587535909
14.894271368816101
26.27101962361738
24.432719272969553
19.878879368208597
13.871104901425086
20.348236904716472
20.277848625150323
9.25904781895103
21.79805382791524
13.489890331581629
18.771843342358277
15.317438064737377
17.913655854318414
23.6808934197041
18.882037059530298
24.80445349458581
13.437497239597118
17.69610248352386
23.089247019053868
21.119227038401835
21.489131482771022
12.694075683538514
11.64359551878968
15.500772322369787
15.049351455830518
25.40661846928274
14.04037694682783
13.715754563669652
22.445511756569438
11.754941887943794
20.692461575158987
18.23136994606786
23.16423261288694
26.84360682254173
27.149713293075916
13.555074423688293
17.580423388888992
12.693502248416616
24.027202241720556
22.946684885875726
20.182842845112575
17.607036885828734
16.414498569723538
20.460379085633956
17.801798062989565
25.32795940212889
18.114408248692285
14.837482048406843
13.105431692130043
16.225401012890654
23.87869800467305
12.15333600325522
17.006494767807652
21.028157988160732
25.64821244859986
20.312131103167427
12.678824364993181
20.096229562801067
20.68740379582336
17.617762129036528
11.139507344009271
17.140353069291322
21.819694037658735
17.452828469051347
25.64250442390747
21.10668757918122
12.391450020155059
11.842808649989566
10.608922288989184
12.368702692889185
10.812452177488908
18.057438586152156
13.743136791954656
18.051920104365603
17.124658525825314
14.460774414077864
20.900258356476307
14.87422254262946
15.39934772813914
25.450156637464318
23.204466004852932
23.227914055527258
11.822300591767878
9.322368968750741
16.72986333109217
10.494801788635726
22.25938160453199
20.20603956545784
25.018021136271045
19.81917075537905
20.831623379694946
19.531999849714342
25.17805961487533
17.22729526304442
12.692843218966036
23.586422663778862
10.867708524017223
21.64844548769797
10.364603882779045
14.938940592741071
10.95730130985907
17.62955958377501
21.410769379340653
20.19851567783023
18.586468744954235
25.17476857177891
25.96043139910136
16.006389996742794
16.519056571040412
9.455023598214073
10.380524540905808
22.924354144820384
14.852178585356803
15.072540554775763
25.316671100963966
21.681912571785514
22.006142062145432
14.878752751895016
15.623409255144626
24.683860824110262
11.781057566388986
12.908491765872357
20.550574823252813
21.062500640351217
13.285564733916791
13.797390606780342
17.100891504782382
13.66341490694431
11.52918170451679
8.385496248640793
20.158369596997176
10.516869779226065
23.200575329428073
13.775102250443577
26.17309540534658
23.284129324102196
27.106077456297253
25.97335845412338
21.667971600685345
20.8131224653036
22.476141819647445
11.452970106225408
25.91091875209772
21.519224641341737
13.775930879056935
25.50777023766203
18.694644963943293
14.961711363055894
18.79059323799593
19.761394534187826
23.171804825305166
18.990686234288194
23.66781653633099
13.200720289967293
9.500322187298595
20.36471743771695
20.363258813298483
23.671152345682856
19.10396472612883
22.47992312992849
23.208847729713273
24.69681531046871
13.99268481860917
21.505825766467286
13.276839509144605
19.423435772199227
15.054259786986078
24.143171325667904
24.417991631841986
11.425164600179608
12.594815412584461
16.739887096690566
17.67880488643029
26.98799458941582
27.321960226469322
23.98803137838683
15.571232216332081
14.94220331880393
15.198580668303578
21.450460534389403
25.0166376091576
20.160322864734955
22.989006180761347
17.88440089494938
12.916128663220691
17.646223829898897
26.703076760623013
26.3530163439661
20.823571756801993
21.903105667602276
16.44308893573164
24.93265446874908
22.196916957918905
15.831277936394434
16.594598707131222
14.146035256408048
20.075511210324187
17.705426730927755
15.470129867291549
21.473379703113405
19.8406000425316
19.408431303048424
13.156843966431971
17.250396807598214
12.391701700839485
10.0292499225608
13.506209707616645
9.112369839598607
13.448890667001884
21.344823434828598
20.520606718262925
9.550266551367042
12.388632733662384
14.046194376096635
12.268482079452248
24.326172770024655
22.898800260210177
17.933471114548865
11.742394603017814
17.165810339214055
21.29184306590562
21.421685127979327
12.335238134842578
20.885559404001288
21.42099329713215
16.933164852593716
16.010454883168237
21.705881312619123
23.002921562309474
18.547731692017173
12.35696254956121
10.39996650746057
20.22301023917225
26.090343866424178
28.22769388656247
24.595619058942006
23.32200492778929
11.438115066401863
22.93819006103444
14.689446362733502
15.204882561553447
22.65766425135156
15.299702856897783
18.91708812022594
23.716635571089203
27.949176730973075
25.69820968250794
20.550202753112863
17.088169092912647
23.377437061800563
12.158820094543392
12.849768311462556
21.59386785291341
27.527773892498963
22.179910944012967
19.58524192045312
10.83299257548118
22.234837766951568
12.102166295985361
12.047701521913224
16.860713917220696
22.15200134769289
20.14870888474459
14.065178944604495
13.201991226354966
7.981402082082862
9.52440888309209
7.826548851039917
8.500225553079662
18.802891757534326
9.899450082534473
19.454252155075793
17.35786355595121
12.456326934031242
24.06001480459538
19.171256874681468
13.951734843911801
12.69623939415873
10.198961049177031
15.879759754332172
13.53668821163879
13.062509009484618
17.402269366403225
19.101608544200335
13.790419008460105
19.33438435763658
11.048009727326779
14.044322226114916
14.340945713881498
23.846666386042514
11.97320427675443
19.04125427574344
23.486840529458686
17.10677692183641
12.431527684074657
26.21671684362104
15.06376192612776
13.210651967558968
13.884875902139221
16.917835050986127
17.026404645798134
13.54776870340088
11.279291387585502
13.390479718311479
24.455451030518837
14.707180473113494
20.16860722744377
14.26395149093139
11.249414807940399
8.968973918205128
17.792442101809982
25.074773125275858
25.79790286883584
14.131361661468327
13.13885685400444
12.882618920210703
23.46956466644895
23.23399933218424
15.293219843090233
15.484912057910222
10.979570528997828
9.445666857867746
22.837449175070233
19.119983992562293
23.84660352914667
13.750723883201601
17.773008132309894
18.276367986676245
18.670262346704256
15.47708232133745
17.3986208645867
15.955226232471762
18.38015435360264
15.311674436865452
26.439109113054148
17.930695510293187
20.023413850354995
16.87522226814756
12.102240786071949
11.545136690397065
10.761051543651881
9.13677381982919
25.714983673633533
23.7335174833749
24.012996380623154
24.51884786120459
25.119921969447685
20.879297223221595
16.037545049432268
20.179229694278977
23.97906032165535
22.966735975119455
24.55443198957396
11.41693351950058
19.76213059504005
20.49963551074397
26.290758037055234
24.3118087532636
23.993960003349223
15.637723919724495
21.566594610684312
12.729355135574302
10.191496044306218
19.47891390038317
19.09951992849861
21.16554095145521
10.063805194735014
12.18002013720242
11.0952140777043
21.056259090600918
15.721681685972412
8.564468312465696
15.774560495074955
17.831799545662765
17.384903656804955
10.495309138518799
21.50341255281188
22.33781059480765
16.204643682084725
20.261179739380047
24.182729568260193
23.041501074315175
24.363533922867187
17.297829930110044
18.551367474873203
22.06334831134681
15.07131681465671
14.876268439563802
21.582794210963407
22.46028959318085
21.272440910969383
25.89860925199765
15.294474452516871
9.454987119340469
13.776745340441932
18.143947367854043
18.093759844499473
11.98695278750391
19.632139957621785
12.808944352311086
17.036402598502892
15.189105834123124
13.14992145193593
22.79639009936287
16.094219225740762
9.30354543299186
13.312429364903167
20.592153191674793
12.99948208577232
8.538279783148889
12.086481507725345
19.399332539866403
9.488479467792205
21.790295184242513
21.91921913178352
16.0471831299248
11.043926699320721
20.980586018171007
16.78509351234146
20.99836654988851
24.072818068145263
21.61725492097532
21.91827405589929
19.40137769289913
20.842781944715316
11.361307460298864
15.779319732602522
23.39748215618459
23.718490636987
12.056971250830301
12.396913008035115
18.082674155117804
19.99399500435319
13.172037581274978
20.24950014963174
24.855941215043757
16.952946667834397
15.1705638887769
24.8142488359105
10.94749325759164
14.014419858907353
17.919204605697043
25.050352900920466
14.550711577799232
18.780890987015244
21.373985185724745
27.37085450713672
26.111970408977182
12.362290627247974
17.835883693487148
16.638206286498132
10.861240773988072
9.886034080982602
23.882928010186106
18.427444022223806
15.757782465428413
15.736767942392172
11.89292056500432
8.204467414889873
8.849133421558463
24.305215609686957
20.94594514244736
23.38114497837228
18.442505990197002
15.308244910719866
12.000708484587388
20.79718568521261
10.109501758399858
12.647987051033354
21.360622944890707
8.984049296507813
20.770151025485806
8.607168056926492
8.160945593710222
16.794368533876536
21.30197223978864
15.074809329991348
12.91865515308232
14.3645570947192
18.142299666547736
24.237137820376145
16.453263112373232
14.542716919291522
21.208983025893183
23.87475691942574
20.00613133544227
21.806702149952443
9.54177260824817
19.684866636627223
13.208521384381902
19.01924452495978
15.853198088578697
13.73619488012086
11.682312382332624
19.286894352970517
24.299077140342387
16.101438487495848
20.821223634702683
9.84756889996467
21.31211252175745
11.856468186102132
9.414721737347762
14.205077571098158
13.28543772521978
22.22205233058167
20.96602600746757
22.940364532708045
21.682449380873518
19.45110889512763
11.332652509062877
14.588276041982123
23.97014895468161
27.51160187300362
25.433589888154334
20.78028580627939
24.624376891521656
22.022244910225886
21.61649387904454
9.407887334169356
12.417142383879566
13.150590613859762
8.512066162573948
18.646112779485595
15.306814343761037
25.55436472465463
16.74465659735099
10.018184082442716
12.372329426346335
9.631134776080527
24.722459180255573
23.39413230163066
15.557700416198662
10.785913840499047
12.524509583523878
21.46527868423278
24.787421400671015
13.158601285737934
9.989464210480223
23.83076348741506
17.80421254585162
8.757908353112974
13.517656335932534
25.22186839516421
25.75612594369503
16.66512254637637
17.751019921654887
15.99225249655185
20.957821535941896
7.940312335272576
8.844801098011658
11.995210823792878
22.971152706758975
16.076570621939574
11.495094492926965
17.598640902408864
21.243631230279906
16.66382963603697
21.59650718366442
17.308948125887454
19.80671470299872
18.454960590272208
11.148185545926935
10.072167589399424
19.272371779640967
23.009397417955306
14.070712217533249
22.88432784007973
18.774939866510493
22.644055523781656
21.239002866122494
22.55461372287923
12.592282571188925
22.079248142303296
19.72157492339824
15.298975411178873
18.27324126317686
24.123835327758943
22.88091593756882
26.04288866790558
25.359580435098554
19.22581915296767
25.472364203142444
24.532591657985577
9.480001281876687
12.67707112041422
13.260658418677453
17.836871747685304
20.30852029507073
19.767047405433992
21.967561863297835
20.394717731034273
13.15915051804149
9.537892491856235
20.18326090252496
17.454290386359546
26.540401438518185
22.680921334306994
23.527259706495542
25.378694458767644
18.711325037293648
17.35565708752157
10.942402298002335
22.353091777883325
24.03090951645545
18.52129446685918
13.37935112532197
21.141427774835844
14.083760203941964
19.93543774946545
11.864290207293733
14.938394396739302
22.17969063059403
9.418465208877969
14.141893966755534
18.516749045356825
20.700324359616275
18.811896546721105
12.25168152854113
10.654117239971862
21.165161971566583
24.405266391031414
13.934703320465236
9.033036789865092
8.810903181861176
13.062768705447729
16.884153224637533
9.565602183991201
16.68746582409421
22.388710856431903
16.231824688263277
9.51277178158111
16.32749168750533
15.19844905137552
10.660674409760622
9.463655857320138
22.759617847475052
14.546363147306874
20.03831616649527
26.80279129871351
16.250460089360182
18.95236513240987
24.133388412744967
26.595615029952302
23.08721430162826
20.004024136673667
22.074002599307175
20.23755945595583
25.077494780698558
14.124649482660875
15.728987527199576
25.447879840054647
16.51727102014343
13.270994370793469
14.352100667424757
10.885040510977856
16.927459199089295
25.50518078814447
15.295995685373704
10.99386089679347
14.859961811327574
21.340422527806002
16.806556906531668
17.226862550761453
23.175117684906713
23.225365689934147
20.491386554354776
17.893073504247432
21.010381302493602
22.831448869825707
22.865488028917422
8.227786845471853
8.130807296890373
10.267211776354864
11.25692995286759
20.682667431269344
12.739649021572484
20.283503357316476
24.986746568479795
26.85417490283516
25.17264109400514
20.485348348038013
24.82213289961522
24.382559595214023
11.175558828933346
11.75782860876061
24.8027615851827
11.439661618541571
10.57095929692316
14.68526327175182
22.269321567062693
10.434092962140966
11.69521628489587
9.40089890310162
19.160626791220015
18.41513181464244
10.872504828769886
21.725532416657796
12.266824963405858
12.040598307173447
25.465264138830882
23.279009048299013
22.710260292873222
20.55785125698076
10.96861872604072
17.27641157465163
22.61927921198734
19.282437782383717
23.17081622065538
19.94767996414413
15.672068824875229
17.18784947832183
24.162577895382356
14.581808924595844
12.531535393344798
24.455184309024236
18.68456891488115
19.16843774304554
12.401042973861374
9.900102241858715
20.868659830241437
24.471506406881055
10.20980838873328
14.997000857554394
13.612177723262256
22.787806772128718
17.396348957316878
19.107316364045424
16.28390525704042
10.553047519946121
24.153052445484057
20.849922568429523
10.551341417734177
7.767747176358694
10.871380828560413
14.651455587957116
11.057847988038796
20.02551191869682
16.785437382926677
21.52228951414121
18.016190515926716
8.153543407334531
21.554824384498236
19.870090785770277
26.440777191336647
26.546579163502056
18.312213197051033
17.29512113860607
23.17539656502914
7.59601013734098
7.461353545611502
11.681723113651572
13.534641753062408
25.545472558451422
24.960226873476074
19.539153711586447
25.590770127612387
23.538120672064164
15.80553036727259
10.246503528379206
24.181649736227484
13.240475191722789
12.946260671466048
18.466718218995066
24.11255292850632
14.803241637114047
9.095607246688461
11.700510232450897
10.419383267278182
23.885328227523406
19.492937561384114
26.061255408166236
21.0511631244908
24.42741844363878
22.46676692116212
21.974834166643614
24.643836561077467
16.607564569764776
19.570650293731518
16.320510234727067
22.22442437443733
14.774154246201773
16.772378266448857
8.48417967211371
9.120377026929868
20.88272088014014
19.502236289881434
12.037111746041008
12.496487868480425
10.681373793924962
21.705529671434675
26.98225281714968
22.809069224553195
9.831267339835495
23.26304448681492
11.359991561480626
25.25116279099165
21.249774555091633
9.890908123577034
10.585755645665284
19.808671994979857
22.437002664657292
14.947175380425955
20.114224831038403
12.533639821322168
9.63513780801627
17.623179080014978
17.635333216297386
13.03235946543559
15.33132048788482
21.37667602940558
15.290547880549218
13.444807707665436
19.418868365435063
14.999324178096234
9.43154800257371
18.063532928039297
11.487665968609242
14.892741934326803
11.515605293003578
14.869254927975296
11.749645718285583
15.234964637797413
19.696200031823228
17.27966760111564
16.543619590958134
19.40530771140467
21.499353284682
16.75594913408257
19.354387007514358
24.010138995763867
18.68961545260746
20.421457872009483
15.269139174074779
18.898422085369784
17.672733064767336
23.29992579291805
10.834358618287332
19.789405471367463
22.716907727151852
13.952317582191533
11.401220875816083
12.561618717616772
11.63486681191744
10.747263560309404
16.736629450242248
15.347257746610952
10.829112022230905
22.9265188146814
21.092782326866082
12.393885262329967
20.58280443168861
18.806153945739393
25.952397290938876
22.485943284114615
16.534302071925982
25.154050736894657
22.587953790350504
16.13604557747605
20.101263369655275
13.570290429996835
22.80906237687192
15.632358360711395
11.686319415681865
9.929194638162636
18.354837982469917
24.178644159708224
14.094631989160776
17.56154422019655
20.892116492105213
24.47344881331772
15.950075636319918
10.267670036029832
23.49011798953404
23.133546887304274
12.600681259741696
9.108533023219795
23.75838483368287
12.156685218654763
16.356026458010966
12.92305885370773
10.292840887489866
11.978484347406695
17.75736562908231
10.004021384022318
20.096454914304545
26.361519848824642
24.29064457962103
22.482334721301456
9.698982604959987
17.219681153167034
8.349008195153646
14.471046144734428
13.926425692236938
25.45254814873964
24.90786748845406
10.50712845067234
23.12544371302622
14.231824702757091
20.645251241984514
21.841597691552465
21.78243973532642
17.642742970226976
23.183533228177836
22.532794601376175
14.631713025938032
21.8979944593563
13.494193920963314
17.59339753488702
18.71336570463554
17.723986127169933
21.258778875761763
14.099470750640787
15.430796776426353
9.092876739443149
12.656246823627415
24.21579089769813
17.140100740043668
19.779210061874622
16.56470677948549
11.975886433892791
23.498139487308045
13.856856832906693
24.698459493583716
19.727899151616825
15.579089048894197
18.32694596714127
16.925702403177084
9.906344682681349
16.040563428375272
13.79871308615309
14.20005476685105
14.932042125390609
14.108127014687874
12.589712468524532
16.639900684092417
13.191734130655599
18.003409399903774
11.33569461225298
13.542088582591703
10.511758567102742
10.691529825404348
18.94210634735942
23.803994891860352
21.13889219757076
21.506379915032067
21.707781380999364
23.03348515656581
24.152041110835697
12.505598925102952
8.347670098092985
10.034230116389962
24.1412606239393
20.425952293485036
12.928183382821747
24.082348261569685
16.829468109700567
12.871288620073491
13.20950153187924
14.784231568704582
13.797620803636317
12.143285011940764
19.725261377319356
10.769372289880033
15.831889983450289
21.687560872460956
15.872669851340058
22.84514134546112
26.21680563471825
22.893151518304045
23.55003564370398
18.964671040187696
17.31371183926299
14.275157460475851
24.55904932699794
15.260092539085429
17.3371461114513
18.44118298024148
16.76263428225314
20.469253002338622
12.474329124987136
9.104098674609077
7.777859566660799
9.070374280115498
14.098061548353966
14.067810596858925
20.797021776448013
15.824504978227047
24.00704590818088
9.901469082334652
16.57925351962918
21.482358294384095
17.55933618284923
17.950432894738874
18.772960230626776
18.140263588196998
17.2919489172997
25.349877536240374
18.518282449018145
20.792396185131576
14.447728734266176
21.43963794218563
15.320881091178197
16.115585781016566
23.548288518956006
15.250917393675662
19.531387928012705
20.41039017238248
23.33887119051701
20.116772160676287
25.618826883618407
26.242278707057373
25.44919692873052
22.866907920026
12.755505361751046
14.228802368450907
11.847435854226418
13.075896348566026
16.789878300368454
13.256729567180555
10.460878684354084
14.487204039010894
16.857470053697448
23.384916230450678
10.763251792903546
18.526409893363095
26.865688089017684
26.12634551468869
16.160084176958225
14.53940882001104
15.369492790803998
23.481219627002456
20.36371570208016
25.52201364783458
19.274053633307588
13.442312880158532
23.0278414708885
19.74210217591787
13.82414715239031
18.192764522613288
23.898328981496736
24.66621412872541
18.875445053844654
11.564853366514706
19.43850866191567
12.63939629929547
19.288121148436403
25.227151834572783
17.085306786370854
16.267158178782125
25.431007568746146
20.473164913635607
13.568190159882656
18.386894248180678
18.72165640943132
17.58239749680384
12.602445286029608
13.708543063599393
22.917248748897062
14.517855994260998
18.843015264182977
15.88505989806988
11.048453892297179
23.67877978694956
12.378236897898745
11.182657128178356
25.12381070658849
12.013503336839488
10.347368469440466
19.218735211228456
13.444579469338555
19.214454592240273
15.978626503940605
16.058528410896656
11.080807145517115
17.59517664953248
8.408365848422644
19.687740316665717
16.24795270296378
14.315928103571673
10.27351956836971
8.016969973459311
7.784152072573434
20.858539458305817
23.109813091683158
19.978654753279006
10.987798528111849
17.628632489193766
17.453471536670587
12.092089279460115
15.549436329128001
14.094337300882309
21.361027505019873
16.83634266400293
21.825570002184808
13.101357919211916
12.976209266957927
11.353759134960912
22.881576647352034
10.862171381184025
22.36097929284936
17.844991794961533
19.269604610932298
13.738787660832504
20.33988733429284
14.39670805954953
11.605542290348918
16.159569079300173
21.064435760391227
24.734173536163496
14.016020587810505
17.520850893048113
16.81462691446044
10.440998393145213
24.630508246666082
21.247963975654365
14.053046929827593
23.086965669270857
22.18751885534882
24.70599016427473
15.869421759114003
16.91462013384811
15.299589317805196
25.767462232950805
24.453059472546926
20.863969108422836
12.997792289478749
23.992709028382496
19.933964265356337
24.52293629022723
11.560545452916584
18.347954855639642
21.98905683728984
8.795177547871681
8.614043258701068
22.819280908901096
19.89716148152164
23.606217074760753
14.880486114087786
15.78104237113691
15.551889021615764
19.074567023002743
27.25974046302799
23.553079576786935
25.116043213944316
16.513977523407092
17.47869588750349
26.892229684767003
20.58232194597673
16.38618213059218
8.388875219842333
8.399698929825412
13.494458893198756
24.716389604583014
25.126179511493746
12.519248442194757
20.127263561202515
17.7977719266913
10.02405341091114
16.39184030179959
24.718687940515604
20.02362223070253
11.371175108092919
9.709711457517948
16.347406896220058
11.699171755935621
10.580457207789108
13.949898201426295
22.577033419986375
20.101564765182307
13.972971302828268
11.523196513190282
12.97477057577096
14.767901700385096
10.159794264860386
15.312861174671662
15.179208561140022
20.198167350722073
14.006815411203288
21.34070922346755
20.50099115775459
22.86625716254882
13.008796835632108
24.630811244228727
23.614730132656042
12.316400836358303
14.547271606545925
18.377087542436477
24.826240051974846
12.934924414924465
10.79626398661033
12.067934812284483
23.093109454406854
21.704376272036132
24.817709951379143
25.4706916762655
20.484259864839498
12.884605265710096
21.896687822425108
13.533327442638608
11.610783127588258
11.531036521084843
18.350451450207252
14.946686686867512
12.661980255870038
25.03840738961737
15.637492274755976
12.096784519681952
23.91808103451781
14.38686185488806
14.61053476444683
13.787467208996764
20.049651051827016
24.753559490704486
25.671990427041518
19.302669414668667
9.877779231374312
10.381224009392845
19.80113202525388
22.091105414944266
16.600584266928376
19.638393181630555
18.16594759854015
21.62725845195246
16.534258981073307
9.753132172458228
22.857762254413995
24.711836812324723
24.932313624411634
20.052987864025788
21.783954060404515
24.00782643609079
26.486809164631897
23.920727942174285
16.25421473486869
21.162123736754335
22.42894016250394
17.655955227500538
22.770284591178772
21.53173673663589
14.614367399945989
19.749955280861908
23.610636131247336
15.036827014968742
24.374803925668665
12.662689957064453
10.638179349979657
21.793238781342144
15.248928627529992
20.36845026620252
21.81723891587107
18.985434042678726
24.020924368100673
13.507295299178368
22.349418164870997
14.241309377016831
22.81810290368524
23.563947773211623
16.044302479938533
21.077056841468156
16.784125118107127
19.788555360947814
22.297200824581402
18.905399020048996
16.69176201897557
14.974987262596429
24.773429007404726
20.991756858141837
23.385469117949796
14.259355682006468
12.804472589203417
19.750824065656257
16.6823617967488
19.60048731864456
24.36402680916948
18.886562907539393
8.873153749364496
14.592723679503946
24.929097059551136
21.37218052663697
24.590875079574694
22.894958311520107
13.900959912562149
22.59483061673293
10.63814691877904
16.838759576513784
19.563264905291646
10.455857512322213
20.881608998784777
19.907313391484546
21.29628324404853
11.222517880088487
12.578462043815703
17.770581857414957
13.23431892242387
10.30117920792245
9.467846204271167
14.18501774655408
10.877760811056788
12.138915922024415
18.836427062611367
9.676500537818065
10.924150812557391
12.43126632177799
21.43579539121557
13.594246939199436
9.790299581080331
15.714088880198792
13.304537639091528
25.652902083834555
15.56621030504386
25.883925200994973
17.27410034909571
15.59551513285444
24.126733384925256
10.70874615905387
13.63682521232062
18.58768110464356
23.800333308570885
26.08202097223676
20.745500048800494
12.021069866971004
19.0698561391159
15.413519793427206
24.873569443777036
12.278405562150136
20.298517083333223
25.308778725275157
24.81451947421041
26.952137480705304
11.748613730658185
10.663020971236508
24.60765689891693
10.937005172014642
12.15194543047017
12.78627571973594
14.847895173174276
20.904903587314603
10.129177682247848
15.09884500217461
26.643030776001627