# vtk DataFile Version 2.0
Ocean circulation t=30
ASCII
DATASET STRUCTURED_POINTS
DIMENSIONS 200 200 1
ORIGIN 0 0 0
SPACING 1 1 1
POINT_DATA 40000
SCALARS temperature double 1
LOOKUP_TABLE default
15.714406561931057
21.08850427891716
21.0572379404695
17.096843954050758
19.97841624579248
17.910397645363904
13.319260117090352
16.716659712018675
17.41919277589647
20.462605476838057
20.844747568602276
18.660690206283963
20.22028730014727
13.701577579212564
13.53296585929509
14.589410603178335
17.194803098906537
17.51576139095137
12.881218909478285
14.680735467051594
21.34823963298637
21.156011508207467
18.973484403095114
17.75496872489652
14.690910577179821
16.048892035273226
23.33994871375834
23.89560586464475
23.161219558889577
14.13795783235579
15.685009857483006
19.192157820942125
17.593890445290985
18.16388549248487
16.94920783082424
19.44900788791728
17.874831912474395
16.855521471920717
21.68818020575652
19.665620370083758
15.27828420845118
13.649121111004623
14.65729113898625
13.44214732745609
16.475305901522464
15.566163469158937
18.983506017684668
16.04660918451928
17.714903113915703
18.39820572838061
22.682548007021186
22.77904404364081
19.889854389413056
19.296573447138172
15.883209560463657
22.358644098859052
23.985884114111542
18.43538052910984
18.495649886526543
14.208593293152301
18.85756174536219
17.67378474310491
16.926297347186537
16.511059371766837
21.33329195420185
18.754632131999863
14.393150807766057
17.443934898214685
13.772264855519351
18.93954433733911
18.699761057137987
18.061171463940877
17.595930588130724
16.866102686158897
16.405666597277854
17.151395228253662
18.465679389613832
19.842341988205
20.554495887715863
21.82192546611005
17.0492195257046
17.945580034219084
17.451118127238246
22.333650914250455
24.78531855412727
21.659155118612624
17.19416927634675
19.533402080021723
16.163384338139196
21.527632294489734
20.35599696295438
16.432329949950695
16.11856616439167
19.41904365968556
14.664990083586005
12.925191804032789
13.11974782896553
16.729405096763355
18.852247799714373
16.51024092118639
18.83664865875262
15.571313949957128
18.271566203626016
17.54086806805353
15.634185818664765
14.362559434613212
13.697469506320184
14.428050508060066
20.59095616696693
19.822772025395253
16.290599785114708
19.43356235046679
16.841796293943375
14.654799323506527
16.268428402828732
16.131712544710034
20.3299879538187
17.42428560451897
14.852258031436286
20.263023975933695
20.779389418860845
16.636693695471923
16.809231109044593
17.783741114126496
18.051307850186607
14.032643044207136
12.460557225623543
17.546188593749644
15.838809725624534
14.543664039573708
18.282075056520192
15.448651925592541
14.671970686337565
15.05216226175199
11.108063055228468
11.063416335949503
11.682545270433991
16.753725264245865
17.58201595506545
15.536591105788906
15.364562715024812
18.07804366436061
16.00262046946928
17.094954494922906
13.493101697097012
11.800256894435593
14.672357814064942
19.00788615167697
16.480115966293628
15.968529700477164
17.139830423810306
13.589405301161658
13.912531815698111
17.31615325546736
20.469170324028777
18.368911508572587
20.269332362230696
18.58303643296906
20.24073369591884
16.847280231085538
17.641837473997274
20.50015534899906
19.25925634180928
18.775047543342847
17.280500373106012
21.823514777426066
21.12735247103241
15.569865489428132
17.525740039135076
18.45190977440165
15.80211469782293
16.895444586274497
15.98169778879522
19.73431206562942
16.073897600740757
17.536719335538578
15.06927408904361
17.92307721854547
19.137048881419137
13.412253539997035
12.681121833718098
19.4057588796528
23.726390357517676
22.09837367461819
19.53700723152268
17.52324870488705
18.471304578902405
14.472237119548375
11.104601214937647
16.23447189189137
15.828790777783858
22.725732138934323
21.003250896972418
21.067880018409102
24.822354700555444
24.110890836957353
20.599971575004655
18.631306899698174
16.83602382706103
16.481327743742668
19.661894585471547
22.863037714151375
22.998850543251162
19.59974191638089
22.604982066810315
19.76008182599576
12.7427315930858
15.286350901411932
17.230930856276636
17.256018376804462
18.042719838154024
18.249378806746925
17.95411655141661
14.444581447834876
13.085858507888373
15.267042738129248
14.01471912767294
14.789100500313461
17.955414358922315
20.064323592317496
20.997433120683567
17.66962583215483
17.07426112262807
14.323679682293148
13.62757150656635
20.14440023264661
22.74396558758305
20.177574334394368
20.422144642084152
12.892401964321653
15.398408717829748
19.575876416247375
22.230635779788965
19.748724683955317
17.247798397412943
15.342862563534108
16.592052854019794
19.737529270327975
21.122807054881402
21.511250501578242
18.876813417842325
15.470085093112935
18.978104806809604
16.50077554116792
17.02883349031046
21.68296313230261
23.368115136746557
19.136849925474277
21.68302597669823
21.18540938973811
22.34262080213654
23.786686082523403
21.129403936335855
21.317784807721004
16.97221625151696
20.744831864102107
20.460028648403437
15.888514942131973
19.752679473050332
17.26024027361683
22.319809469734356
21.224960321630785
18.67701395843456
15.519148108959232
18.44095289151921
17.80521273326161
12.887120789090137
17.961990835617
15.636497124796968
18.009752059147125
16.05062997079814
17.42728296064589
20.040365728986984
18.91240066651229
21.030035710538147
16.807202911130535
18.097599212476066
20.333200791356198
20.52499532366739
20.55947448017784
15.414740362534047
14.058005288548033
16.212855505547935
18.156421755124484
21.80906223449321
16.9612257786557
16.339787932183743
19.92991477152764
15.412790856835247
18.782993433170866
18.62899347174681
21.340145149132848
23.974153750241292
24.24657656750823
17.211994829902295
16.6098608486232
14.643531417981325
20.813794920833992
20.896149297596203
18.924178377769227
18.395192306756485
16.902255394831965
19.23384322310948
19.467039567674025
22.066061500417632
18.6858066809042
15.707409083540822
14.617627949793464
18.100760705761985
19.763083441615485
14.922407548102651
18.128165299340576
20.87110059693811
21.925402318592596
19.148703111548222
15.13980227730913
19.307492894020722
18.486812030800746
16.040416383944834
15.104495480480542
18.312982390989742
19.59702702866651
18.197372485503653
21.011436668858625
18.327545547795854
13.262539096846034
11.541813215892905
12.167795805966588
13.324379287998932
12.557147510947386
16.888043563237858
15.198501414783047
16.253851708972483
17.18045037477586
15.405457211436707
16.957248860457522
14.702512984056051
16.07196732177614
21.172483171272994
20.534097400607596
19.300805281537617
14.803555308157767
12.910399449091498
15.391991636981631
13.904205120436139
17.655747434548168
18.731922911060153
21.57093375629219
19.765373935170498
18.833974426954725
19.615078939015735
20.994676832315236
16.94461957295831
15.475747792579991
20.604004307651973
15.34133017007967
18.17520469665226
13.984595330634205
15.42247223250584
13.856679849106834
16.806194357181315
19.382926310785603
19.185981399057216
19.9655024766436
21.910544478614295
23.139113410218155
17.872284633722785
14.914334033622682
12.036040663488043
14.111524974461
19.604203358411677
17.456560263514074
16.478430809180594
21.2866638694965
19.948068711627048
20.43528601837232
16.77730047437474
16.9370883996407
20.02313080233906
13.483276348155288
13.479262804934312
19.494107250169282
20.458388403552558
17.09066933949398
15.545891736832456
16.377555948324176
15.267495867609062
12.939081616415017
11.57762090470929
16.96429931983802
14.45050763319862
20.171861472203698
17.68074891348724
23.2786484792229
23.583566743029785
24.888240044140524
23.270363833771885
20.389743032842038
19.131633414362863
19.48957501361202
14.492910163213327
22.919042569228548
21.81568925523537
18.337941940185946
22.907172380795334
19.919034300108013
16.234239781114745
17.5932611934045
19.387562599123196
21.122926407735587
20.113372428681252
20.8448895527766
14.994369866072649
13.422253795901463
18.072564873632412
20.26418881014819
21.08954493915949
19.547902327024502
20.836638664904864
22.096048384133503
21.13831691500946
16.08287712994206
18.68175207759285
15.683146614076183
17.333413142156207
17.076145948373377
21.160838555112825
20.477377445938963
15.665699335120836
13.569856576258088
15.418139869576791
18.548381772030815
23.817541317542293
23.798087554773904
20.678535991831097
16.980394752633522
16.42583883950174
17.25157745777372
20.93306940985365
23.216335126870348
21.171621830452406
20.812834209344285
18.2342172257454
15.580354938632533
18.35459309612798
23.264843511285978
23.773794238626234
21.1714480099393
21.436560112713934
19.573109581694414
22.937684833662896
21.07729658508396
16.957186141601227
16.948876117357266
16.09541435688899
18.971464090122197
17.724302665950102
16.743478933371694
19.413818115419936
18.891244571172063
18.82881903951308
16.07935001100059
17.15274159129002
13.765555272069662
12.3462597633327
13.658496634018116
12.036453351079276
14.746155376335912
17.618890436497995
17.79415236065646
13.273481878030465
13.315409955336404
15.76460854205561
16.15269319999495
21.247079258722106
19.851960117306586
17.966485104274906
15.480425648385067
18.24600172483732
20.85413816850448
19.347407252621647
15.606192724753548
18.924038887726653
19.725740520589458
17.718000318814497
16.8177330358601
20.19064170482552
21.555052315921333
17.07456000900352
14.194438003933278
14.230749806131005
19.87448566254473
23.67788531171413
25.557904889586133
23.084877255606933
20.380728946020774
15.253267011232294
20.53480379831864
16.608473152333193
16.601685099168147
19.7794940451135
17.832180706056562
18.975521791872676
22.13510430858795
25.317971680410285
24.110222169227637
20.48845322644135
17.322720533136614
19.626144035840493
15.477154845881348
14.095625340800165
19.18985426813937
24.026922515352968
21.821135270144183
18.585963760204347
14.352865821621487
18.057498136146908
13.885891871604631
13.367456559173677
17.129562493633745
20.38390876284126
19.883519629180665
16.078418647737763
14.768438849623166
11.541334537345694
11.189861917764041
9.572890911238245
10.869254882442942
15.814853535200537
12.465048024920705
17.367584566094617
15.64039028472336
14.500939934961258
19.9686776408839
18.392136995098156
15.372771282720407
13.376852811748572
12.941853784407009
16.582891024411186
16.37742845131707
15.548754368068412
16.398759670970552
17.30063582918274
16.313099282497205
17.189990150957378
14.753296941728541
14.674289557023114
16.969600960268714
19.739594433257178
15.984949784242055
18.43472056011768
20.497005932541864
16.87809756892901
15.743928208227343
21.943064517205073
16.30127875772258
15.243968710041337
13.9523609523799
16.484782949254143
15.47240717498638
13.9969013511182
13.75452962195523
15.490837589786924
20.915869092044137
18.516291979495122
19.92710485366002
16.163147734884603
13.265512611253028
11.35195592506065
16.597637240444826
22.955970987674533
22.854985931987354
17.149028541066166
16.293325068910786
16.95269885572254
21.52898537572542
20.592469068059113
15.826397436353961
15.536970941096703
12.2212918018735
11.963267260426731
19.590813317051275
19.621078417647805
20.82301362511732
15.909586442599515
16.385646745042973
16.679701996220714
16.283067732136846
16.267352836345243
17.72900727375957
15.95367139963919
17.21884807046761
16.74885497468333
22.944678695715304
20.432172708699568
19.64990910175571
17.336051611824963
15.397256140930192
13.85981695017735
12.680727115598932
12.638068430476354
22.919781108303923
23.513984770383136
22.178515115053923
23.17871529074224
22.39135819429179
19.70635079405083
16.473899564137863
18.463687186033084
21.35798532728238
22.106956431011604
21.376837824629657
14.642343030378584
17.635506698282917
20.57138815643241
23.271130199820988
23.25095736837474
21.574335268269852
18.584389980132897
19.589817069154005
14.926372283905007
12.85827420503929
18.299614827533034
18.775203093414316
18.4379979566665
14.145320757871579
14.733925616469772
15.530637826223149
18.38069067534751
15.961119170722402
12.497071232718593
16.521654286304607
18.851236683330903
18.012785227554744
15.59053190963403
19.830456697776377
20.56576588233524
18.681735194584412
21.003204787067187
22.949325717364765
22.936244078071
22.508649768806194
17.545812331739143
17.391289479758083
19.14844314388004
17.650304813286372
17.95098106990666
20.60826661146287
21.84059800616978
21.202452905217463
22.0605643711277
16.29257150246792
13.291537857631198
15.064819637320024
18.13678681822503
18.36377509056028
15.93155869362164
18.2247658801161
16.048774489998486
16.854407450632632
15.628009857586832
15.850187938557768
19.866587358591374
15.855561814869038
11.896373749882015
14.465968707177163
16.650830834383576
14.263568495174038
12.05623634034303
14.013973804815526
16.43706979931841
12.78761572101844
18.250335084604618
19.349885172383992
17.71256620720097
15.27150873669969
17.901306358623977
16.60698323517223
20.09912661285467
22.467403391969636
20.492891832230722
18.847926792228844
18.33107928373788
18.49599274079472
14.590381016938764
15.907329461453324
20.968755291162072
21.546311600243307
15.003775558713114
13.306531173077131
16.45542996510165
18.275224935976198
16.367361611402714
19.777081858777187
22.513295388809745
18.22804945409463
17.03152286293441
21.513937001952407
14.637296132017939
15.439442333834485
19.217633371572596
21.803565481934243
17.965453679576452
19.665629752298084
22.400206662430225
24.922384313573254
23.342146820773642
15.908754964265631
17.44806496199886
16.658956204269305
13.062139196255814
13.926542230848803
20.559574563773335
18.36902715995822
16.841598388228512
16.063053023995213
13.707183277975165
10.501011146838106
12.122074773331342
20.420133878987514
20.75790808565423
21.106410768703906
18.51917061853019
16.225115442729457
14.253559637030632
16.704901041036827
12.890324953480096
14.346652066608021
18.23554016856086
12.20492339034359
16.059654117180788
11.495608807623322
11.11958565320715
17.114909790930025
18.61803141009462
16.20828497413471
15.027466278649078
15.976197895664235
18.73757452802576
20.700607040085075
17.780096211428663
17.002012744460124
18.9880253644076
20.31649652053244
20.181488692432005
17.9674271810455
13.068059016509146
16.813831252558682
16.42217491837865
16.4584701834285
15.717559403961186
14.758128315560722
14.650445021438387
18.094990066317344
20.904285099236596
17.757050131596596
17.267157742655026
13.512773584599177
18.630149390833616
14.91290744816364
12.924116908128774
14.363450172143367
14.705591159156663
20.228946323498395
20.68635381399648
21.499709918549566
20.437483660421115
17.750805864958572
13.430719999696022
16.28712287152942
22.764677862930018
24.278454589308797
21.983192167734728
20.769776082318668
21.746233525639397
21.45566684205309
19.164633486211603
12.605134981396718
13.753073344309572
13.737180208273719
11.314508083618588
17.057685061539974
17.334618695447464
21.98410735772885
16.955459714202902
13.425856717353316
13.383964501741273
13.327342485941992
20.932643682494344
20.86378637843213
15.478119587016614
12.530285265962116
13.897185063515844
19.8887150885299
20.497166456783948
15.965434012958887
14.12145257221607
19.427425386552994
16.349320312578232
10.825622162658476
15.00622243059081
22.910497400677123
24.171080248590332
20.008878385686046
18.875886867395316
18.18723934613622
18.84943322074343
11.246362528965404
10.991047294233462
14.384381032878336
19.82030443686591
18.332928707562488
15.035598425768255
17.989781431078562
20.666695728007976
19.60066758965679
20.2167764437124
18.160347091818736
19.11586081930896
17.405375891792506
12.93191045062246
12.838875655889565
18.745974385869985
19.882130463521797
16.20634718056271
18.423638659924947
17.870914616724175
20.552157975238984
20.909680912093346
20.53379485193464
15.841371414210823
19.986714082543212
19.617555316760654
17.495353595391173
18.628587206588424
21.77606894072431
22.302367571388324
23.01537909649362
23.172016985306694
20.606442000471514
22.60092128581068
20.529584232856642
13.09259363286902
14.369989552501337
15.563072315203085
16.81904221769401
18.350016501080525
19.0871870664213
21.257729888155325
20.59434517880036
16.49676250094993
12.891431863304032
17.518706051076123
17.742783314302134
23.086498926653018
21.92980295013051
20.51830617412428
21.302587746820805
18.585804970343112
17.3813574152403
14.471489881074717
19.52510784737587
20.93582394022043
17.17228374132214
14.907525809077999
17.917982439285872
15.970577481376587
17.009108123098425
14.151191095417266
15.351526137596256
18.171781911532978
13.11329567867494
15.177519310137288
17.4463990610061
18.77900095030933
16.64450641604412
14.221207385946364
13.400963306868212
19.06983217376333
20.79990404331601
15.939037769836203
12.995375339327316
12.345429328750855
14.562729605384671
15.710365960075684
13.90701043367729
17.528316697724005
20.421596979626905
16.75984476465462
13.181581263561002
16.117887838686052
15.626459332768311
13.189116644715636
14.025595971514788
20.258674630262767
16.505198856654467
19.40576645886504
23.13356180459775
17.15912013546575
17.7836192492643
21.19433843610385
22.908942672776117
20.536270902715845
19.7593192422769
20.724558587105776
20.773870096781458
22.546726840019108
16.598167450819858
16.848697967839563
20.991921217530013
16.81651610714314
15.332541444438256
16.18060441330424
14.392535221196091
17.919420296951
21.14520754432291
15.86921425586683
12.962938667925165
14.764473587888146
19.879214307260824
17.8867591941177
17.94164016616675
20.028000745898638
20.741710686705353
19.625725197327057
18.138138382313084
18.895753032430598
20.62345011291292
20.38635788551077
11.721820687342706
10.76946327650087
11.968017654442145
13.341651600286644
17.240237672023902
15.235812038910813
19.263197800052456
21.233449975740655
22.717659865865006
21.905051055695186
20.12707797545556
21.12309766866567
20.451921044851275
14.535723712611253
15.869098177685176
21.139535319656876
15.714171777961143
13.192211647966081
15.059040044734006
18.00404371033269
12.895872407010346
12.60611484251412
12.463242506716128
17.739164634797238
18.252880636882185
15.023490576195133
18.66999116219366
14.877652257932422
14.866289461324989
22.041835490624596
21.3804070908844
20.086468619240893
18.89737473748554
14.886593374385075
17.675613851522446
20.863871545724756
19.799199289662546
21.16941221732095
19.341626424681596
16.343530961433256
17.85993298792121
20.84345219156026
17.17845791138803
15.729304171780031
20.56620619549162
20.156181434051692
18.796966106457
15.195996084068698
12.885356353524354
17.722449888360526
19.98626069220337
13.285761933517186
16.046043128885174
16.220514081273677
20.321237293958006
17.96709338822996
17.163698089030618
14.964386914256512
13.722665234678445
20.37201311437323
19.105523216924006
12.962553413345429
10.187025060289066
11.780050557870059
15.059005798629222
14.609295657472913
17.545228204312348
16.338254784193012
19.06732758533998
16.173116630401655
11.042963815522562
18.963368644995768
21.61541379233631
24.594844518032083
23.559477735204545
19.609395385980942
18.861947180332525
20.001393503494008
10.671574568164974
8.89633025519834
11.918635239093392
16.737161505602224
21.971031789137662
21.282931497294484
20.60794269880009
22.59148715366263
20.60001438223151
16.563250989845553
14.264999639759326
19.317539923204013
15.105218814491638
14.252168145807932
16.48509586659464
20.257395190335192
16.773316768912398
12.499402850335288
14.319381075514457
15.467056414842867
21.484869419888085
21.13198611626535
22.911529829121655
20.31996536289613
21.91644325274217
21.85970966168912
20.611631968222877
21.413563076393118
18.908400603931383
19.249168831658697
18.865867052210508
19.850916643235337
16.008570795429886
15.703521868578385
12.039508623149457
11.713639780073
17.2944044877706
17.848146859689866
14.556267018665405
14.807669173350597
13.9378886833579
20.14316720882653
23.473985525347747
20.0308492867678
14.266084143664347
19.32073659487665
16.18447748333615
22.124202724993143
20.743922756879666
14.772586381833106
14.929576516677995
18.31366715460565
19.91038114773326
16.246288998505822
18.33887023630704
15.840394204512418
13.414396718888618
16.53529221047318
17.59939803272151
15.699939178976678
16.90112688375526
19.190329486400394
17.2022636196825
16.842633311519368
17.535786555359856
14.928091202193801
13.0323524328561
15.890963595707179
13.665518736755374
14.236795897451072
12.799709370756565
14.614468214406584
14.545343671639731
15.70312409227258
17.72225650427052
15.928417416734156
16.76285866341938
19.472078838013175
19.80983943069093
17.79930476233912
19.198937668693066
20.62387337335798
18.801658125360905
19.201617533036035
17.432054312136657
17.445054704225786
17.228742982051397
20.619778063965423
15.27824647294696
18.613288016401352
20.919860419731464
16.473543014627538
14.8383703900506
14.968246467829182
14.160366604855787
14.354956943021572
16.180158017330587
16.52628353064781
16.048032816318926
20.650379879198034
19.058434161027535
16.53990829461253
19.81503221260926
18.90325704329223
21.64873366452098
20.410683607555395
17.62846049284702
21.073302549262106
20.938264990932428
17.763872532901214
17.3768594659649
15.997471515565652
19.575712357719457
16.00971620196367
14.397943332138292
13.601061261218325
17.846431632567203
21.318781796622236
16.271590314846982
17.336938464050682
20.29930465487114
21.012329902865044
15.841989296423487
13.198972570762473
18.790417112515104
18.750903218064877
14.804360438317953
12.355697984833357
19.40694194718546
16.112140461767257
16.710412796814023
14.535603045821896
12.530969873332518
13.882565502901391
17.24380020779945
14.256212445252789
18.687994527441685
22.572272677495626
21.305097221557904
18.880705974049445
13.3228293023142
15.639334430403858
11.60151449918538
14.272936084965005
15.387517766168207
21.805844556253895
20.63253368014221
14.255258692526361
18.831332015122165
16.454910914834613
18.15404458853492
21.43288067207198
20.872814558363245
19.245288718935743
20.635394817148565
19.788480607098748
16.659455924274596
18.84133247893681
16.243756840942844
18.413810623653283
19.209800128911887
17.688819004435544
19.01933427713668
16.429611053554066
14.66745075853259
13.204234557293141
16.015353898152075
20.30677167894553
18.89167550792214
18.685171861905594
16.819309215926545
15.570419213263422
19.913944069436713
16.221115250869598
21.296723957769476
19.653105761389106
17.808592522190366
17.503811819806778
17.28683791132639
13.928643326501577
15.755963601669885
15.326447813554646
15.60171438570291
15.027442444278634
12.84737858383331
12.725942396494476
15.999739179391877
15.10798991725117
17.354785271077933
13.834691888355838
14.424443193235122
12.929519268700755
13.15964650745378
20.523603146981003
22.495263250179804
22.360291159002923
21.55486418984949
21.052679256828313
22.338794834720748
21.549452945576967
13.453525647334622
9.505363460817387
11.65582854450194
19.42003695068506
20.752765916462717
17.981262759266407
20.346103025706334
18.48470129777631
15.444747801644839
13.894998273461201
14.690098909320762
16.04412621465493
14.606583947814396
16.108045933713157
13.37861263700559
16.683684329721554
18.171967159560097
15.91768609342338
19.730793396221923
22.615716678628516
22.49818410246174
21.225350097166338
19.068527567589744
17.40539412566818
17.02072424617296
20.268265102116853
17.342448269854593
17.96231178504611
18.274974531522144
17.544381728702028
18.780013364070637
15.441167133888097
12.411307632639001
10.80981370119553
11.771660032116962
14.201333220004267
15.459430006944634
18.28493749907488
17.051824701759948
19.714212071153806
13.439940284480551
16.544329901247323
19.816228705651323
18.99496943850887
17.973388933325985
19.485466134961708
18.59752427828223
19.402151097852006
21.444844323819552
18.61002490765049
17.891331265425894
16.23609309093054
18.6719575310723
16.478680903689888
17.055348761631326
19.2187182308714
17.0350515076975
18.317443451853094
19.140146905073827
20.916035083662024
19.681798988272032
22.39777946896871
22.650970657975734
22.716974195537475
21.36842749578066
16.046954074118023
14.285280956237312
12.978857526374062
13.238360205198108
15.837818831756662
14.293670417753399
13.003244228120852
15.04450114459251
17.300389302315384
20.12053477883596
14.84902079593721
17.603134864321387
23.636652051967282
23.75527169117358
18.4986458598399
16.811145375556155
18.192223688460246
21.66353183087269
21.649145680289788
22.38509264156148
18.979828319596653
16.93586900734201
21.03665618338577
18.424522848312854
17.001126992497365
19.186473203112556
20.81186668036127
21.220765319672715
18.315428916148853
14.320988886586429
17.149525001127497
14.831376132935539
17.661988451192716
20.982715590567242
18.502572437456333
18.376771607658966
21.653264633769595
20.05323857300388
17.079515773352952
18.36664526917911
19.082550857570716
17.123336867713387
16.221607995691247
17.077308937286116
19.43919030291922
17.15457632164603
17.43525238836049
16.915835652575097
15.09260649593275
18.794760731060084
14.219555770209741
14.748760788085624
21.305980714474085
15.342798063670545
14.409595609379457
17.49677113524766
16.080255515246552
17.673353609323243
15.971323667803459
16.7912038486083
15.445925946154054
15.713628647709657
11.584923208725442
17.596802901753627
16.99628125802537
15.504357079311529
13.097320501913108
11.167919375930785
11.53404091622994
18.753903116011053
19.25964771274298
18.692223913286423
15.842920218468324
17.16066426218729
17.466859648080362
14.30340123907014
15.732974849817838
14.371527497177976
17.855835177562227
17.456668765925063
19.385357797683813
15.156358471881292
12.922955061930848
14.334524029838189
17.77437779229422
14.963626903147778
19.866869575290266
17.955510567044158
17.52701512796185
16.253833319187365
18.885708496877434
15.184003333784261
13.829739149078547
15.95904193422812
19.386926635967953
21.86607989990776
16.795286533486237
18.25807706212805
16.398447170409753
14.19358272459459
19.984705973023846
18.480384898813327
16.94301988876686
20.657562500179072
21.932931055807185
22.09011060111148
17.427502554748873
17.01635952061616
17.03045048847169
22.422723258816966
22.69078705225684
19.059526149792497
16.750410908091798
21.324844123341055
20.190623069077304
21.22677065815516
14.616752128195673
16.775748586803516
18.778209021974074
11.758670442382352
11.64161095594618
18.493490726559045
18.807139493880374
20.46080643799809
15.326420209943057
15.561645377115761
16.750211330663063
18.71725032643108
24.216901852448313
22.208009649828856
22.543602685419835
19.59550864709284
19.6327639153888
23.801849988432444
20.961434006709904
15.53491546027598
10.130671183737382
11.111454644734797
16.335153996350748
22.49342730081654
21.777179200962383
16.632691905242865
18.840606437099687
16.3707762429117
13.884551531608592
17.1629357703407
20.290133049881927
18.54848984937084
14.102993947561258
11.631910255542355
15.523520287148575
14.006977022987494
13.624559863497748
16.944238593012045
21.272156349665423
20.32408427048882
15.875700137631126
14.154232352469627
14.876569468408192
14.961085232347449
14.023919899691151
15.499106721413257
16.9421662278492
19.11651896079504
16.742449245834656
19.588048800540605
19.689391068362436
19.658343577895785
16.147549059409663
19.402920790178936
19.106916716924378
15.32883601648564
15.431977154390468
17.718188067234745
21.211053117177247
15.572679764866681
14.172399956210484
15.23997359334527
20.08638556005996
21.162322580502614
22.18484900637687
22.06394587880047
19.34134991944775
16.309417028904694
19.072926853826523
15.590131840322119
14.240126093548728
14.40375337770094
16.905245601893505
15.82472572985946
16.729585544288117
20.78138491595956
16.924559429726468
15.490721713763287
20.44042320529462
16.0381966469963
15.962824298574244
16.165681192952622
20.667325880599797
23.248090617505664
22.262633307553834
17.6436184166752
12.682439724915108
12.852390217336758
18.24944159177255
18.722344381830062
16.892086179143075
19.077998491026676
19.470181945515744
20.76562426611961
16.96899223143169
14.284181798875304
21.69643256990376
24.136329242380643
22.599287467986304
20.547928349546034
21.565800917096485
23.306298638383755
24.134447773701105
21.74798901270174
18.67432451107272
20.241922131436837
21.13931359448086
18.598989188906362
20.543999559165186
19.889278388931064
17.68378038074742
19.944203108425402
20.554456413347676
17.061901221591214
19.181065284865532
14.409368713637885
14.14483213361663
19.154114590880962
17.5315640887364
19.006893383892415
21.567823831564436
20.438712096328498
20.831222196134817
16.356775628461246
19.726445948863592
16.788654871227028
19.58064807097108
20.742888185582505
18.10266393853208
19.58926019182187
17.51859437370121
17.979507634331572
19.161077924849742
19.27770117625296
16.716546342145385
16.723189669720586
22.22993480282678
20.646793494206946
19.849758667729684
16.768525878774053
14.927368944121142
18.297941409023476
17.132368129647578
18.719944014853695
21.114022440198223
18.38197539546463
12.04058969275776
16.232563925374862
20.663162978732462
19.999287653850295
21.337081694659766
20.061984122933357
16.287087197634975
18.90656402248876
14.863150348012958
16.716759184536745
17.482889117916372
14.495990524977971
18.002632210218962
18.43190264346735
18.711598066733515
14.435508820617276
15.616599674330867
17.444853406171063
15.703947948117793
12.85486106587321
11.911292530759104
14.04088228317308
13.333267467387037
14.446857901990423
18.13362471936604
13.640876265115564
13.727547613255444
14.72945987217156
19.103226709961653
15.635288288079499
12.841228088013047
14.789199837806278
16.161760346599287
22.20711846127311
18.220681203888663
21.844146730788154
18.00601182136092
15.826469528950689
19.5435083493894
13.753441363838741
14.729516492019057
18.463515569670097
22.656829170020934
23.35710569315349
20.03753570492287
15.072748778990448
16.83984210868731
17.051495198138124
20.462688209714354
15.890004313489255
18.71484243641926
23.2443350699722
23.91649333209727
23.853303179819246
14.970129951186905
15.258487965312028
20.51830472394765
13.761696527507317
13.405607047498867
15.047744870336878
16.102988245228083
19.168178655312936
14.086290890815519
16.73109512751231