# vtk DataFile Version 2.0
Ocean circulation t=90
ASCII
DATASET STRUCTURED_POINTS
DIMENSIONS 200 200 1
ORIGIN 0 0 0
SPACING 1 1 1
POINT_DATA 40000
SCALARS temperature double 1
LOOKUP_TABLE default
17.404811917256108
19.261076626636992
20.195539502651005
19.652814327677188
18.919984562172054
17.480417364144085
16.145237397072066
16.472962975201437
17.639500983085714
18.87220970395758
19.048673692130592
18.415134505283795
17.748693845582082
16.484448430814894
16.194603639050918
16.574346599738913
17.151793473475117
17.09989787777259
16.526607792869356
16.883314357911104
17.812048495067344
17.821949030072844
17.32623311040363
16.73382894219801
16.702639126762083
18.098985789470447
20.61353849599719
21.570792056237902
20.42689314120795
17.85454176043801
17.15751092372522
18.156492762937987
18.9068340289824
19.073106815414015
18.61353282173127
18.390444495910163
18.495845906656665
18.946072569248987
19.383898385246827
18.437542402998325
16.730653806207087
15.64149300436563
15.192439180821376
14.875494500885882
15.386770591000019
16.423604945348348
17.816870586367724
18.618733241585954
19.262226082303066
19.626076703190748
20.450232629904203
20.307942411084635
18.822288338635918
17.85024533214931
17.975643921510674
19.74945129484175
20.53062439581418
19.349067377958487
17.987493183358822
17.4215541200733
18.44901810793659
18.687375729974402
18.167829734941392
17.75898075803375
17.966534054105683
16.895027555968195
15.264950982921421
15.13379662854072
15.613222791732387
17.017767686826357
17.713571957860132
17.75294379260548
17.781515049205538
17.61063667533331
18.163118077987765
18.556579803828697
18.865814751415503
19.497562648815094
19.949857720748398
19.532106079300938
18.006815284343777
17.09888765761081
17.870578914327865
20.116146162489677
21.473226547757644
20.553568881148603
19.013035642996467
18.26710941513085
17.540024699698957
17.996887343142564
17.96122329774648
17.660275771225454
17.989669627241692
17.995982240848132
16.550769819660474
15.733652162621894
16.163058629556154
17.293276693824332
17.666135312095573
17.68384722094327
18.098780251904792
17.87152932184836
18.22582756097867
18.503380224905897
18.48763022164253
17.831467406937225
17.129626219867806
17.09486900523971
17.955702992926323
17.84715635108627
17.03616265744279
17.396583858801268
17.657973797011916
17.30359228054688
16.906590021046974
17.044075444799493
17.8137891449712
17.522717564849025
17.333513708977826
18.31409933888785
18.732110427703866
18.168748994731242
17.55000648871819
17.021682930945353
15.90755889937743
14.100554804119149
13.551967454297483
14.655209397634696
15.312019087094018
15.594620170643141
16.327225357415195
16.23376398996935
16.080569131439507
15.406835240211791
14.005042345366606
13.31173638256257
13.997342170247062
16.004352992003263
17.164713905063078
16.898840400030124
16.37042350505899
16.237056335478137
16.120420743598693
15.742580142637959
14.754997780523379
14.759401711905882
16.112421764115552
17.604824052494
17.908062129424493
17.433381185269162
16.852005745620794
16.295703826248857
16.29669365394801
17.20932907873872
18.128582575932864
17.907533818574123
18.013337722497006
17.848477896630218
18.065743885236582
17.56519511126507
17.546600589110895
18.242498390967537
18.512204138697285
18.299199054862868
18.240603010756924
18.761629483580624
18.53695078635573
17.537391505362493
17.1129647850388
17.2328661773448
17.353936598179505
17.486930145556514
17.676808082670718
18.09916119415713
17.8320928458553
17.655919504686867
17.17571357042304
16.858407215560984
16.240182880031462
14.943154299189287
15.290870276615024
18.072145091890544
20.186302431478413
19.900698054766142
18.536413462315632
17.611678768126772
16.66213597652575
15.366648080107883
14.771255269882683
16.06836603171214
17.490462570974806
19.4428547005
20.548337739455214
21.87832033488887
22.64192054764632
21.731399307136144
19.680837695652563
17.899020277366905
16.939356647556046
16.74531972553909
18.204643571636094
20.318185295349508
21.00871864355301
20.416605659304878
20.075509597764956
18.52379415174512
16.62303414079492
16.621959536800972
17.656112784939467
18.675934316768963
18.96716773471707
18.43643636688781
17.233609161860805
15.930744669031263
15.898623633994543
16.612068090613704
17.13349846633716
17.40321843304145
17.817136708856896
18.556101560056863
18.84271685083983
18.063445639585645
17.311098537983238
16.51126964916421
16.635083180405964
18.235430223945613
20.1200339891804
20.267991589506018
18.811660963850027
16.614487915102725
16.64997467576951
18.407432061089644
19.735088111020005
19.5696330669306
18.49790531387739
17.79908148889311
17.973354424869314
18.93042461743806
20.037745824437835
19.969698568675256
18.680372922089173
17.448574061362766
16.866251270525368
16.559040454188715
17.460100275480865
19.0549853003594
20.079465388489922
20.039418879473164
20.333259441574548
20.66588142691547
21.286441261626308
20.973755572670555
19.63521529679547
18.69961860625653
18.378419040765337
19.32096861213168
19.427166032732323
18.542631674747348
18.24712718643319
18.16351310018155
18.850282194807527
18.659098144422035
17.79900561703394
16.842721343301697
16.686494394914725
16.085455936464143
15.181864593518503
15.587714795119314
16.027259651611686
16.7178821199329
16.759036006885662
16.982578494821592
17.67951484073268
18.114481193584442
18.60010614383277
18.387255065186604
18.446434332181706
18.9739604424774
19.58204847947425
19.37890656584997
17.866394460194943
16.93374736693259
17.601449561229206
19.048758468571133
19.728123169622393
19.025673514577665
18.576212441827685
18.468814146023576
17.555411037488113
17.654317468530504
18.200237353319395
19.259287690155407
20.388798024897145
20.46407529783327
18.71343894372496
17.194705469574213
16.91418668060325
18.115203348475777
18.37333491587361
18.158927650983188
18.29671039265561
18.218833989843073
18.808156195687378
19.58547904845162
19.985395238529687
19.11886576354884
17.751281559446753
17.13904420727171
17.74634666421165
17.605927786281157
17.018887539837163
18.003600356411262
19.10816599426461
18.955074786839507
17.909263088932818
17.075733204825436
17.30286277985993
16.775644545309554
16.468049417545107
17.44353361149923
18.48249339344198
18.50680752575298
17.90888750185353
17.278718960376896
15.81660421446721
13.882643342654372
12.930382457644916
13.509856046040483
14.265448577088979
14.66104637750412
15.64296527427569
15.708879182156032
15.849026003457887
16.08316450455842
15.46586408637535
14.891854637522332
14.88521245730779
16.14121146124325
17.601324213215534
17.759820919105167
17.092807500723744
16.311667798086955
15.863770735366305
15.807028721449758
15.550975106053597
15.84775195667965
16.862056080294522
18.125394450851967
18.360932713457636
17.98874849723952
17.900877974119556
17.62186930627916
17.044386945576193
17.37253753116778
18.228869073848575
17.58175443612654
17.090588633857166
16.446844329433098
16.485958877399433
16.235285474569505
16.595660775734434
17.520364449946605
18.32771039157768
19.14892986721718
19.64087555870576
19.67314748034615
18.17987690849606
16.230537716020105
15.465782541379951
16.528453583623648
18.05709557873548
18.3983266633593
18.205754824263725
18.65511874409383
18.749813976476553
18.695232535383496
17.824947900859645
17.040478329648238
16.352246763653188
14.936976961979147
15.232078917367486
17.7755893138909
19.34394403086634
18.922251833662493
17.556453110668645
16.654621440376445
15.859926254234262
14.94950836184429
14.858961225006617
15.989847729066367
16.820098529565424
18.318937849901154
19.503264535276504
21.28523520994866
22.142112553530357
21.694547943409734
20.198347773251324
18.592852402590296
17.440651072740177
17.169106816414125
17.207502665028166
20.246176311901092
21.33601812514217
20.94464617203962
20.81388589862619
19.506297400673166
17.68665533662583
17.2180941768537
18.04524375481353
19.135762259489923
19.50306948613568
18.7886803228461
17.109492440905548
16.48063862925462
17.46969410570253
18.693790348511477
19.166893632324093
19.088476226841646
19.204586876956796
19.28592557182988
18.514182338461886
17.410842322627747
17.290145068631354
16.938525400153594
16.96560110980093
17.713165329784417
18.833937223056598
18.84055037016311
17.659755244679843
16.16978831423955
16.369782432030288
18.29732780827986
20.033870993138912
20.04564744938488
18.98118552613372
18.26261092768289
18.323075289923683
19.146904034388292
20.484750095914457
21.086640302085254
20.427453114514112
19.20358840681945
17.90532955666133
17.338642085987747
18.286728818710824
19.835595106404597
20.68025985004915
20.688169665553833
20.84731872817916
20.853252304871134
20.849566583162378
19.768346725390515
18.327395998639737
17.79820127823631
17.95707238410775
18.569075237641762
18.41200396006792
18.035256275352218
18.10141239904693
18.053379046562426
18.09075673799894
17.768744241026678
17.16705775842213
15.824676844113611
15.032211416416589
14.85564904031472
14.694310253848078
15.221600615036396
15.696081655197007
16.01036465545684
15.677113754408783
15.716426917501563
16.792997676564287
17.791059005751446
18.516083628155435
18.170185368070953
17.84075603708081
17.989437218918628
18.975560605236755
19.45467995086634
18.426805209117802
17.409351808346134
17.6717743204483
18.227073669711167
18.183112475746192
18.078908935074413
18.758076126212856
18.842083515067365
17.31167927762792
16.50230108882401
17.16756625343841
18.914445708261255
20.510161077746258
21.235401192118914
20.332920440843047
18.7087239984274
17.875847763909906
18.48492218156533
18.001588774133513
17.863704989241207
18.526559283185403
18.868330608443348
19.42634156993327
20.59052425181528
21.630220833991384
21.24218505807817
19.62347014394885
18.032175100549715
17.7017914868046
17.04005200932835
16.537107030736788
17.892252361896503
19.562811317696656
19.40648376161897
18.078914086313397
16.763965163287587
16.220376638951812
15.356390431452724
15.559431877500169
17.310837837782493
18.72835380867228
18.770463495148213
17.70640090381182
16.494190284261766
14.961606000590454
13.621500841762327
12.899561934321389
13.50869730609628
14.42137437639823
14.40490245747469
15.065872660623887
15.03599234112916
15.446699574686622
16.604229269681216
16.613220768941574
15.90111970655632
15.403583634563056
16.033242221994264
17.329798890192446
17.710916722831538
17.264143810648477
16.80771512513232
16.695658176241313
16.828625219737045
16.719710217033878
16.294867639849407
16.329966017487727
17.26057151132452
17.706074677845667
17.37909053733361
17.47351582286193
17.514837974000294
17.15904113993605
17.53580205302661
18.317552502120133
17.417184323594295
16.44347180272828
15.80657973126312
16.136601613829296
15.842054725777425
15.657725403379512
16.16717055500392
17.282438773316454
18.910112205397468
19.643855037066356
19.50214171982141
17.9076127434336
15.931186804530777
15.184047148313352
16.92768682952721
19.37153361334945
19.888845177557645
19.05827368200924
18.899021456904293
19.163987202968737
19.350549297253423
18.227302547991325
16.55717152372961
15.55454556765748
14.486029515290133
14.820378024113007
17.222568137379422
18.71871384266325
18.726920704722012
17.293390400433868
16.217404318420197
15.66418604120842
15.537567257345804
16.200645277331663
16.786517262108685
16.45393154012577
16.779575352781816
17.85309789068579
19.83062616275424
20.380481142961948
19.684803743729255
18.434819319715277
17.324010343940298
16.105010877806752
15.60537745869822
16.546855908373438
20.216243315706205
21.806714686451837
21.509133052954372
21.094236076748558
19.98444853087518
18.23077461214824
16.775522552682496
17.057236408313212
18.45839635506458
19.452078040173944
18.992907760265677
17.535393808470662
17.701433142140772
19.123305001147
20.21440587890702
20.324255481797675
19.70242263189494
19.103990272947105
18.28990475053083
16.843529461723445
16.215157164229282
17.188537017597454
17.478499145869712
17.11701073276555
16.95868392289354
17.505216995028782
18.050793267074493
17.887438438082675
16.950663591380007
16.584673838108195
17.932434203953548
19.183745269619305
19.171873595257438
18.801015522097543
19.10211101221866
19.524566125905853
20.009702900027143
20.86907225607748
21.298757504320495
20.90966593429917
19.56875107843094
17.72685829871367
17.143663230282833
17.783178268759332
18.62347075387684
19.364451358851078
20.022325474012025
20.65638892447126
20.565529978484705
19.69726287751413
17.941379610577805
16.960319392565424
17.267122533334703
18.290202331846476
18.712394894846895
18.278765644007027
18.0249114484193
17.751992810205927
17.440152195745195
17.174402832885416
17.383104333709564
17.373772297253563
16.006137740798074
14.938488726003284
15.07584112170829
15.214777841496005
15.211205101692258
15.143654674569364
15.453937833861323
15.537034878438162
15.41951989645303
16.454855648926404
17.41592838450692
17.721198111820094
17.1587203506225
16.866186337226576
17.140519410335585
18.541622197852433
19.364052437831933
18.53467973473706
17.41351122008945
17.109252170161994
17.177408081686995
16.985744050544447
17.369567240148115
18.61974948493449
18.81253541864979
17.103512285496894
15.961592401683724
16.50603241757734
17.60157369040854
18.447660933661698
19.491974263082625
19.854055985804703
18.864400489155805
18.479258374137128
18.838292557639196
17.75563035323072
17.64586514185227
18.75135588145129
19.4335060493344
19.528713315004136
20.301450813555633
21.435213874646138
21.70339858164539
20.513249136583482
18.445269472541572
17.65164386204455
17.05291857605278
16.316222286771193
17.044589726656127
18.418314163730432
18.371296252143487
17.723671176317765
16.79055319854897
15.54128218772027
14.475890784508545
15.261261243645405
17.60537153032183
18.874896292863497
18.89802769013281
18.066130123236704
17.08680755912398
16.056411091636537
15.306773819624924
14.851785112863293
15.36499737411508
15.672987968042193
14.51317600765768
14.245704622054811
14.007690361235216
14.598184915029584
16.1656332620335
16.78284567427841
16.755203137578416
16.680939954446963
17.238155472395057
18.12003891722564
18.369546807718482
17.972903041861887
17.608444964417696
17.524608345705236
17.925117369137375
18.002488716433778
16.896615756027
15.899278852083006
16.258375188767786
16.571763258464312
16.086122849383113
15.940938578155773
16.15706985852441
16.718383961669378
17.549790946965167
18.074063077319394
17.45548784242131
16.518022394740385
16.178971438935655
17.03306659582102
16.75265886673326
16.133927783813107
16.156272543336016
16.891384623705026
18.56568422555171
19.61400514731339
19.73196656133331
18.78942829746346
17.1771666133886
16.21087283277296
17.56761296067583
19.73785629370127
20.23233299018852
19.604683452750415
19.561231630185404
19.772443189903896
19.441705256145973
17.846804615815287
15.894736631024436
15.26324842154489
14.858316891173343
14.874649730955396
16.70474118552582
18.124958154638954
18.655203540247083
17.35294009890665
15.96409918152319
15.318518112076362
15.769203723835075
17.245061071883043
17.38305753727953
15.837076997014853
14.913645445089646
15.722938083621063
17.713114539116066
18.337343265720428
17.764822968994743
17.019751803017602
16.743186600248055
15.551027451776756
14.668305353789249
17.09385072648412
20.544990118275397
22.07600966627031
21.480377129433133
20.48316303968598
19.389219058919114
17.617279563583214
14.998668839936219
14.373704271242987
16.012111950109286
18.141090264542257
18.77133772648226
18.200638811062685
18.692983638304977
19.69857478682813
19.880396877036652
19.34320136753633
18.59534158067699
18.13441618183439
17.025424990152658
15.663164208205298
15.693426308543893
17.176410514645987
17.51759303248081
16.889014002975284
16.969714411674843
17.801074915693967
18.98431143495812
19.36933640781191
18.808873478112897
18.094776404419537
18.78143404037539
19.316467844281664
19.11438676165211
19.195522910903446
19.80892729159783
20.293861102193787
20.54876399772504
20.607671117584452
20.10703144003317
19.401431783747547
17.89484335496466
16.19929130455603
16.120304571412344
16.762167978691778
17.268204194987963
17.921746753277255
18.744990437994588
19.870554507667848
19.973831550982005
18.627846806064728
17.0221520730041
17.1008040564585
18.01819417837499
19.50152346040008
19.683911925618617
18.843481687472643
18.38076657832996
17.950173566832767
17.490746828796894
17.062623663952035
17.59825141282045
17.68333173420566
16.549181791833053
15.873845205889129
16.177461747359644
16.23915686487161
16.16323136808727
16.019465063568884
16.22231983210212
16.356390032543622
15.85986951289645
16.0672764899607
16.54288205710676
16.69528148173259
16.059092491724943
15.605414199619663
15.815359418957112
17.203590992786115
17.98311954370408
17.301998434115344
16.34828800706506
15.920349041395141
16.316112056430356
16.827150944458037
17.335115598839728
18.277086671569407
18.643777438043983
17.581142991111157
16.620626158378872
16.803293532804556
16.954225267877128
16.934899944318094
17.7316173542716
18.7591051818632
18.421864906256182
18.793433031797903
19.281104919441713
18.13316463668074
17.819009120275407
18.58366405410653
19.03132807257019
18.88761527685894
19.175651024053742
19.940357397268567
20.45422015184407
20.11289012035048
18.603947310679676
18.04494887888377
18.028836431338863
17.354796819675975
17.34701793416288
17.758404619467438
17.67008513323533
17.997079997299057
17.840533206933106
16.457857558076313
15.332031277589172
15.919390206432663
17.6323062900571
18.106064430742457
18.046217028425588
17.96623953462409
18.076463185345922
17.88465684132926
17.27287969339317
17.141435207171252
17.607016659439545
17.126140113956723
15.001723184975944
14.003809974266813
14.156015639972962
14.852523823546132
15.818615151257436
16.370757192729357
17.41248136148306
18.037014743457824
18.43243554608077
18.421631986662657
18.10147802394395
17.925107946687763
17.739656930588563
17.29966865871279
17.901900648567057
18.502250144158747
17.407748208622667
16.02725435507133
15.684883556052363
15.680423928435287
14.869507162501545
14.77900853455328
15.52560426645438
16.937094904399952
17.491441348393412
17.224184719276803
17.09927599356514
16.6360844628301
17.012659595777233
18.560157412060775
18.72227679458219
18.085335805738534
17.594045104993125
17.38663686407187
18.113583062782215
18.988408943078543
19.257930597164403
19.153876893522956
18.313522351461035
17.40343406305049
17.9215369551983
18.70641941054256
18.413898252925417
18.143149093654635
18.8244148302709
19.34352147973588
18.90550953139615
17.524202566670226
16.22297385220021
16.255978922156707
16.408890659548472
16.046386690447495
17.154650736296585
18.08904561329227
18.516973991544575
17.664511786442585
16.590221654830017
15.779418364639627
16.04258112194794
17.162398896707327
16.911978538666848
15.055516841325687
13.6137553978483
14.077662185821117
15.786516948923643
16.642107236214173
16.810158738946242
16.43081546684238
16.3528910849466
15.429619090698658
14.928468229973275
18.483152844024158
21.045526642178476
22.252555195421323
21.708783180927643
20.588107208057707
19.599907866282297
17.702651394340823
14.242594214640961
12.70738757177718
14.24688724518164
17.259894923119752
19.178421476654584
19.388413621763956
19.596665156799872
19.72586249239155
18.852568829671032
17.627330917427336
17.029707680585474
17.096232010814145
16.245135213114047
15.419032018662469
15.740352271668517
16.99315091484506
16.950151628460265
16.270139560240484
16.912108363917707
18.34075641743195
19.831735615879136
20.201297165084245
19.802102212520257
19.123332993634556
19.363494686780673
19.592746875228336
19.319745364055944
19.327189306862564
19.42161974405565
19.478719770166286
19.436440636240174
18.871871615873967
17.59786280185187
16.469923337596594
15.374801649651307
14.933823399343853
15.777537028829878
16.53151146807987
16.643521149454905
16.89282463596553
17.27806491517299
18.753693553829343
19.607956702765847
18.744966791092835
17.5726020096717
17.94493423103556
18.58943243352343
19.70980414451936
19.535135269076896
18.27200238604472
17.64310961806195
17.628993331803226
17.618474781080927
17.195780661444644
17.418226786926372
17.283941553580252
16.620370399130703
16.63180475041308
17.10093655306044
17.296770760053082
17.47242491833033
17.76984286001068
17.903046617654155
17.911940458443663
17.24630453113882
16.260147895887382
15.577818214518775
15.333591222839344
14.938647456978634
14.842390159404742
14.884205857645812
15.668268782631593
16.467185783795586
16.77295032527916
16.742738998224105
16.405921610651497
17.09774496271277
18.409806400687632
18.937836761858645
18.876599849639476
18.929792365723493
18.797484298119908
18.5936712033401
18.598813070205384
18.197772521050286
17.67725429657599
17.927558497718493
18.65718503214007
18.249645195097866
18.655066394276787
19.130980383937292
18.284752919466936
17.649619843486278
17.413070428242566
17.103758943891624
17.013334551143988
17.27132488716164
18.019981124453285
18.873492958885542
19.299250086448318
18.80521946092954
18.684841067870988
18.88660453748551
18.535721950858992
18.531307004849417
18.47006850499619
18.114197140791912
18.523963248842623
18.60931387870755
17.670429724692198
16.786559502229647
16.795225542246676
17.444308989780314
17.176033804015507
16.853697750060142
16.812812559522598
17.70636071128286
18.453557639205943
17.789889628749545
17.652410393207138
18.164266300080406
17.74380405111646
16.118770419887387
15.256115575443037
15.748848660302542
16.022238373841006
15.715128220995322
15.576792788484507
16.93080464417518
17.475934195072202
17.321111043575378
16.574836776505002
15.898239049711215
16.144650775641225
16.92392577503832
17.07838795963835
17.972972840141864
18.745870184672874
18.126269782343115
16.830069914370082
15.702929811162772
15.300167672547895
14.627649216002158
15.093116659744423
16.257342466930492
17.64339481648273
17.394204584995233
16.406650640625998
16.571886812343436
16.72995874800575
17.491115607227457
18.990088306742027
19.15487573110428
18.66095613319016
18.3180732746084
17.928445737295956
17.53407858439012
17.65184806999697
17.940039517008014
18.62755386134886
18.755850180852807
18.090771321497538
17.969069997183468
17.5002920232312
16.74177029984535
16.81422891556282
17.680896975136704
18.62013603601165
18.92577859751935
18.521221455922873
17.72040774062178
17.34426796835637
17.447763435707447
17.407381598247593
18.516008782208107
18.93893174056612
18.58131837637475
17.9813721958432
17.606018974299836
16.986001354483445
16.80714112547819
16.679852317987873
16.331361863497385
15.195726118062442
13.764170959631334
13.926960657655773
15.471890455267744
16.408226901967346
16.717793040488466
16.00461828699648
15.799725470660057
15.671414127586486
16.239256532296814
20.077302945532413
21.311130781740165
21.875435436069925
21.491508241895094
20.903608427195536
20.43737593560754
18.54091160335362
14.836426546742695
12.679240262107776
13.910876168087588
17.15856481607997
19.44234823999944
19.6788218647765
19.34863765322308
18.764775462126526
17.41431587928087
16.356620421969758
16.34810311884886
16.707907004916187
16.12755216990622
15.338620151501779
15.209832872052875
16.238537139783894
16.526608669220085
16.56565343698642
17.914081373748523
19.556975002519412
20.28659964118411
19.69373146711182
18.782858005884723
18.0924238796925
18.074142977858717
18.298756099029443
18.240148148493017
18.486288374569416
18.653394735250913
18.56605555218988
18.494612237782917
17.739275968752636
16.390173536489083
15.25774717974573
14.834803575420205
15.121264501552133
15.932676966699564
16.670143903235193
17.05324976309628
17.32174399493334
16.869333434407345
17.588471929321244
18.591328204518852
18.75745055660254
18.556543450464783
18.922069903914878
19.09497127742121
19.375144559630257
19.059315669356874
18.131815796321305
17.32310043440589
17.057427242518266
17.15143007890126
17.03590984397526
17.247447330129994
17.509866639487008
17.42391994645177
17.45731679006594
17.836203642946646
18.306724972356893
18.384989741485
18.826880154284154
19.273586090693495
19.733760148998446
19.26268712396083
17.574088757072627
15.782947878254163
14.761099940641865
14.654412005136168
15.23265279208788
15.32422169116395
15.656900418370403
16.618219177475424
17.541799579008146
17.860227585157237
17.26649832459132
17.957012824046263
19.949944516329484
20.68815747633405
19.90663065987802
19.41225359687668
19.738505294414253
20.31798134329699
20.451042726771263
19.830137481133587
18.94259849550411
18.781407293626902
19.12401620662795
18.625134104524967
18.75046754595642
19.146759613691618
18.96057582568067
18.60231328624505
17.799586608964
16.80683195331722
16.47748289424018
16.34455680213537
17.103791076803404
18.27329869251108
18.787640088153804
19.023227033607572
19.53801183060471
19.5138539714023
18.864923590946756
18.49873288255786
18.40912104170322
17.97888019465489
18.199948147359137
18.512269622769164
18.229309352823826
17.705073856553856
17.32803126473588
17.313792814074976
17.137302664206256
17.05722717600124
16.67019919644158
17.426695956435324
18.638999809843757
18.04385055961693
17.535574570234704
17.60710237262878
17.293871291150122
16.782276966728837
16.404305538690043
16.804383054462814
16.837345332366407
16.017960924971536
15.255937265823611
16.48671498846667
17.22543738799066
17.028012716308986
16.282067046804897
15.54237645262492
15.717786325969712
16.83321660084768
17.169744272259106
17.57064460628274
17.72991043491115
17.40359591158243
16.894754431241985
16.17827528263735
15.884305086632144
15.498910170499615
16.174643247440656
17.025351175245525
17.39375503904052
16.299576029109296
15.204785561223147
15.520666875665855
16.1423835756214
16.987078710496746
18.214695202061012
18.06841874733751
17.657362229767855
17.603325161940884
17.631149891031512
16.78569713782889
16.26435160939974
16.77552162991963
18.140124363037568
19.059138212110152
18.5252825453281
18.202854112167014
17.28225406712144
16.522145950871
16.88447792903258
17.125749589811832
17.84649810152776
19.048298084230595
19.86849325114825
19.560191184116054
18.423099463610647
17.662545910817876
17.715749066539914
18.85139839506384
19.294314990345523
18.677800699109955
18.5814555924696
19.32973319376536
19.397591269350297
18.76042815710133
17.25737436271779
16.77965807646261
16.25171588858006
14.630268710879548
14.491121093307017
15.987358226903014
17.076868481661506
17.422678641604836
16.500410114043422
16.568627200793063
17.455458860873865
18.592758914941125
20.618828571936007
20.63739871636312
20.991648599821822
20.93899917091036
20.70711189138771
20.58089879427759
18.91063128931411
15.612466540255697
13.445701172734367
14.47709910054493
17.471745001572852
19.88956612991289
20.056813251212674
19.142832066902518
18.38106730968347
17.096471046919742
16.624341276473924
17.119342167359168
17.406525576052406
16.73775804468838
15.441815952837391
14.821432421571243
15.754422207957209
16.19608765925726
16.72728199937135
18.271725380188464
19.721978840058085
19.738071308050024
18.36902123515424
17.306240702598075
16.898392788345703
16.742575013979025
16.780737314106762
17.16093347363887
17.976731603789016
18.50570446786297
18.458512208496842
18.70381447182114
18.711218530612808
18.125870571549697
17.06841459689592
16.391794767593034
16.228464271250164
16.364036506074047
16.594860683328086
17.34449367542683
18.11606694849634
17.622704952837534
17.412256939955807
17.795097299175975
18.451568106813436
18.954394085359457
19.223238114154807
19.035452661157038
18.52472811690707
17.90533538206971
17.64865728102912
16.99132490421003
16.59926885408339
16.529491196457226
16.767878523560285
17.02236502694212
17.583954904511533
17.90195456052519
17.455381521450064
17.373638090044953
17.768507944364636
17.408950033006093
17.54897812946115
18.330563183335805
19.904463444936994
20.515833324369986
19.221667390464333
16.932946795050103
15.424618713797138
15.496449546620784
16.479885985293212
16.690125600861716
17.038091665178108
18.148483010398703
18.974301697876975
18.972467113849913
18.010615750518113
18.082522757609514
20.087999584427912
21.237159461156704
20.725565982967847
20.28734612100159
20.62601073260181
21.067187457247073
20.891952701792555
20.031328384639433
19.447052725643676
19.49408444751319
19.371608576594525
18.85948200531107
19.090646326382505
19.191398659517347
18.969278322889203
18.82389607805364
18.246983634052963
17.271067622448616
16.43887901004116
15.707307758902694
16.068538824095132
17.276629308979818
18.032315466790266
18.79850928414428
19.822183526549598
19.851964227392312
18.948238859971298
17.936001861768627
17.947034768263986
17.803932463493307
18.270130302731125
18.787121547469418
18.555711930548537
18.26802059717199
17.63375789183819
17.491170949547413
17.822030170633006
18.017789177124122
17.527690570165134
18.031880968009908
19.360058466373722
19.21222984970266
18.474534846059584
17.83330342884599
17.207248330270065
17.12901631709507
17.085469560487613
17.670398345282397
18.044898694747364
17.15023017333316
15.814241289053516
16.63849247820681
17.793031583247664
18.316920031460477
18.453852939597596
17.94834778417324
17.303306458414106
17.073224564624194
16.554956210153406
16.666118604922186
16.848436189912128
16.656867034269105
16.86885105774185
17.06660206919217
17.037871960222443
16.631971137745392
17.096359879960907
17.651392194497177
17.294231875645043
15.899266210420537
14.959952672714802
15.200345063281558
15.796433364835815
16.886026537437715
17.895062143035464
17.372640373237648
17.052049032949895
17.332510491194707
17.822451198152585
17.086229761058707
16.034623306955485
16.1318467368552
17.433357192915516
18.83665029305348
18.75899648197515
18.700007263085638
17.69769704645394
16.61905985954333
16.419633342033727
15.884651093824093
16.578801894240573
18.284742362269824
20.001464148087305
20.32174893103703
19.140979819271724
17.53400395164065
16.882950828415357
17.250232428598974
17.940600348755222
17.989556953896038
18.835794510575763
20.441429805810486
21.198674259525724
20.479187733455756
18.410107703283497
17.92892548580823
17.785532314215573
16.244767343989565
15.725513538570866
16.424246792806375
17.2664981086265
17.808283562902115
17.187309802139378
17.85813859302315
19.391014062514728