# vtk DataFile Version 2.0
Ocean circulation t=100
ASCII
DATASET STRUCTURED_POINTS
DIMENSIONS 200 200 1
ORIGIN 0 0 0
SPACING 1 1 1
POINT_DATA 40000
SCALARS temperature double 1
LOOKUP_TABLE default
17.50066290048359
19.18043284850149
20.09358957648865
19.68355511149597
18.89178722152602
17.52093789005206
16.327108949661184
16.553180364053073
17.631727355148442
18.750753551453272
18.936019940597177
18.379014414666415
17.698654618128277
16.65895639819676
16.40925146790025
16.7400896405556
17.21389225379214
17.160915356593186
16.720110022583267
16.975545063611445
17.647387959262907
17.64674268783483
17.23551067157454
16.77080949657539
16.853792822457677
18.179361346196508
20.387961262861037
21.27493755413894
20.24113404484543
18.048135008796393
17.362917819279186
18.190315153692705
18.93611462187716
19.121534446959835
18.730559133004668
18.48502813332616
18.57491041561222
18.97947858003765
19.28117626068637
18.419095009487556
16.892154729086744
15.836269183929314
15.314513777295662
15.012388582177996
15.451052487519618
16.456335486010147
17.77705666790963
18.657072658285223
19.281469494430837
19.63778558943975
20.259173309154974
20.04073176114316
18.719147383478116
17.833472498822008
18.028812748867562
19.55100951447311
20.258900203843908
19.296075868333354
18.056524517859085
17.571081180025974
18.380530439417043
18.629506305754923
18.18940776237052
17.77046280272886
17.74879586681691
16.7386060022561
15.315842688174081
15.13111810144558
15.669162988016001
16.91907515746201
17.59260529814498
17.685546284423637
17.73333555629877
17.679851565871953
18.204574116579394
18.603476215619093
18.90656533404549
19.44325593071499
19.808899923491172
19.381676387469753
18.033913378155184
17.20851324028378
17.935377191412023
19.932911404421404
21.16420725066772
20.435838378141927
19.063334684374084
18.242628593670293
17.577853091894347
17.841315239207095
17.84070323746413
17.686226140784868
17.981640209251136
17.920000082715486
16.715200165203843
15.992469702957314
16.354072756569998
17.28778218602183
17.630771708269044
17.708309886447793
18.061608998706095
17.963717814750552
18.274332801432518
18.57722674539667
18.613633907654485
18.056163630978705
17.39213380131069
17.273197207628993
17.86496004431486
17.74253799897511
17.10728412273653
17.39904064167078
17.68261366146443
17.404374313902913
17.024544015404334
17.13330182286868
17.727795123698883
17.542821989767017
17.451075826362082
18.25917723403996
18.63775011515365
18.18433527761786
17.57096187424578
16.9391954639721
15.79175446520225
14.175209825922936
13.673779324885528
14.590667618256527
15.2711597807558
15.613444964796228
16.217498000363918
16.215615339912645
16.091915530768755
15.468707573042845
14.233672129314101
13.583582420396638
14.204062013239481
15.961330480385916
17.05790229744091
16.9112006376791
16.43522508727579
16.242953564064603
16.10221664206053
15.708628474669998
14.895991042930833
14.947931663779352
16.161148781093043
17.50717440071812
17.854421446228862
17.44593030486311
16.901755293185513
16.438694691631344
16.451353121404505
17.213765713685575
17.977139315028403
17.84247165948601
17.88248563730371
17.78814265019951
17.94987324999266
17.579105898451395
17.567111431249458
18.13809878328633
18.41121563955053
18.2689894510846
18.227558565254373
18.593488197500147
18.381155053586962
17.5528174017287
17.13956884937962
17.24784816585318
17.435262988751692
17.595823987440692
17.771107214181672
18.078821040544838
17.888092092927543
17.688950004236005
17.230571569862818
16.796907465130552
16.11961370090011
15.068388464937414
15.500570364323623
17.971300470406078
19.888806235727024
19.71892977073155
18.509369574793233
17.582015261190456
16.63735250229831
15.498513172061562
15.058184508165441
16.174376150107932
17.542511402266832
19.281038461179254
20.459503185122824
21.742716871612608
22.386998701872482
21.49958908563059
19.5832211180856
17.88700207673404
16.960732199531932
16.799819129585746
18.14305999321281
20.084023788528395
20.840874091826077
20.406958710786224
19.929855728957172
18.490304822209893
16.846291906072974
16.761230817729224
17.68678958966235
18.65776866969644
18.936697036969758
18.402400953963237
17.26984211821776
16.15741163262291
16.144447115042492
16.786171989242238
17.29429191080598
17.538458696535375
17.855041988692182
18.425410934479856
18.61710191201006
17.975231104398322
17.30406758098124
16.65330415434281
16.80533960161883
18.205470392364784
19.886145513309884
20.098103538217863
18.78955717608296
16.894589666451072
16.83944847273645
18.340788932014455
19.549385473927188
19.4808190645266
18.58700381027721
17.979205141295576
18.130573816631788
18.969419646202862
19.90952627312697
19.817170085160036
18.663385588229136
17.499145632117905
16.84254920273091
16.58868944768179
17.40517234761163
18.830261591354553
19.827277740247876
19.987227433352736
20.282943986415948
20.60620548161643
21.07299699706985
20.70066146557141
19.474713985543538
18.602610302059876
18.413497607487727
19.21403041975879
19.341420049339465
18.614417776755435
18.23546032623319
18.153205269558857
18.668418035162976
18.520167666183976
17.76711621211037
16.90422282588046
16.617064030047327
16.02442555471012
15.260853302588636
15.524179558018808
15.980143844806657
16.6216273047773
16.7595685361421
16.981833290374404
17.588550175944892
18.042359991583893
18.490622427553127
18.401607787750795
18.471599687357358
18.94033469869482
19.481066334423986
19.276145421619884
17.977451876596184
17.138047851349537
17.703122585608973
18.993992088487595
19.61815781736353
19.09355152282419
18.656097698247994
18.413158372298497
17.619445124828164
17.625124857285204
18.128419442621258
19.083180658313996
20.076524545662647
20.135170542723525
18.674654332928572
17.316567596987536
17.067860433756678
17.994569295011832
18.23677042561296
18.121805029769003
18.28062360288218
18.304643488951235
18.830953759833882
19.541587214932218
19.883774096258897
19.14862501178645
17.93585091258988
17.328446660339402
17.697644686990667
17.541726894793268
17.117577993013537
17.947271307085796
18.896965411794223
18.76262731572093
17.854649801986557
17.136483339474246
17.189819834308427
16.74494263513308
16.586778069982085
17.511407799271353
18.429430713351078
18.43982100125835
17.851735674780514
17.115369964749547
15.71304871157055
13.978203077367615
13.135147633139754
13.637642728180793
14.34517405159045
14.77204927330785
15.571633396117585
15.699112018216066
15.84006783704079
15.992079933130979
15.44275460392203
14.905656628343692
14.976083261034704
16.139452573458872
17.422252600783366
17.604363740609628
17.03794124329754
16.3806398027364
15.993804012332298
15.877430562878075
15.637051762091852
15.86411739227897
16.772638097351845
17.906104650952624
18.197497611317093
17.901210861617308
17.748728318068864
17.4713048146635
17.0697241150407
17.4129801965442
18.09069412668857
17.600782163891488
17.105931935280026
16.57728186055402
16.57396702552301
16.377320342473492
16.65645041714287
17.45991708543128
18.24876312759773
19.014530538263298
19.46538664071742
19.434476871436683
18.14358473593462
16.436682511593517
15.763744979032362
16.674470070919554
18.007395191420958
18.398464066141017
18.28944529823843
18.602311632331485
18.69066406169746
18.585543289044793
17.801993496345254
16.985264866900312
16.21447967708489
15.058285684293208
15.409853295817783
17.665380666252055
19.17163116578642
18.893462114987045
17.658327546184964
16.71518278308544
15.91084893118314
15.121218219752205
15.086485940612969
16.051156141230987
16.90515038521382
18.255989008686058
19.490800113494345
21.111547202747765
21.891575577914946
21.410311972748183
19.9781047714069
18.455178706898202
17.35902251775429
17.118678988672308
17.368205316243113
20.0713993364141
21.2021484685396
20.954586097144094
20.661324612157845
19.40984611947112
17.759686228221625
17.245947155372278
17.945013966192864
18.960092898052135
19.34015500303249
18.68810642230548
17.256632337609528
16.69335792939767
17.50497631567362
18.575910792978178
19.0344568735361
19.002584538835677
19.060718320895653
19.048535331070024
18.36109918568066
17.445179455877906
17.264959004603156
16.98241435537065
17.020023553536454
17.727100840614895
18.73181830698077
18.79112304087199
17.75976140958018
16.44531225064715
16.585087845488754
18.259203988711665
19.77325708376583
19.82824353434777
18.95821928505391
18.372099055771084
18.47241420293519
19.248638822913406
20.403852428059754
20.879330936336054
20.247607758282438
19.06403969466799
17.859213014197937
17.38183793590241
18.213706792156472
19.585457398212903
20.42280312532994
20.571931623427023
20.76123116688503
20.795484194157414
20.68161736621526
19.677577516990233
18.403286427635205
17.89822823638642
18.065575997894253
18.582075123442866
18.471262681914066
18.120002627911692
18.07810139559277
18.017675846116926
18.04374829043909
17.781509514401847
17.176663021523403
15.985337863328075
15.232628686350523
14.994228152056735
14.848493501800588
15.252940934601721
15.668577526127825
15.972759762626414
15.796511207326462
15.89859306635751
16.834393275153918
17.751383567375218
18.353313244216647
18.099865935089266
17.85278456446539
18.07096691718725
18.934611430539086
19.295596999653434
18.384748696807875
17.4819649347061
17.64682939309141
18.155514376342555
18.20965941132391
18.17102778095485
18.676439150576343
18.66247459653672
17.383092007250504
16.695448653404565
17.29612639359548
18.80871938818325
20.22348558659177
20.84888098204082
20.06941601108367
18.659199190023546
17.968445315741405
18.38748259258442
18.04037165953631
17.942294171027754
18.49914210825662
18.876109746082225
19.429127077883855
20.455269757023554
21.326695481437827
20.972326380078695
19.534602790569878
18.104511733960514
17.67988699948708
17.109457676538067
16.730635599840078
17.85647820978245
19.251612151116152
19.159445832253905
18.028718629729667
16.8608975042765
16.239956143836757
15.512387794584583
15.761691374859495
17.319262800205696
18.58971990635633
18.652110898780396
17.73539609029238
16.58648913593022
15.154416077100842
13.863735767993937
13.209111647758448
13.709396632423775
14.446278317963207
14.499374293129545
14.991715857071755
15.048341624675471
15.471826560196007
16.41504083713775
16.457362850155036
15.906046956543003
15.57548388093953
16.20766162152815
17.336751190936297
17.690381757636683
17.304777642456386
16.866237340536507
16.72114866659654
16.812280839358753
16.700527540734626
16.349926829032455
16.41677326165177
17.199589487725365
17.588598565655133
17.34589546707553
17.365602475723396
17.37055020832013
17.172978969250575
17.5505263182172
18.13740478654971
17.422776578426838
16.543374342452545
15.991050516890304
16.20386842224431
15.980111852462652
15.858056612765608
16.348865549038063
17.387629023686284
18.818636342662167
19.54633212772924
19.396028863882933
17.97284125610473
16.19210677036967
15.53898804987806
17.01835150415925
19.11074031401409
19.65736693191893
19.080242031123273
18.96402679359913
19.160710483111085
19.176694959121303
18.10862290009561
16.601504543933395
15.60200375542772
14.695661693375824
15.056944582430177
17.15132446290369
18.579953105593663
18.605143717169334
17.35319001268132
16.289275847150392
15.7015680837006
15.58494938439986
16.16703222462242
16.684870492471667
16.49100404882549
16.824233281047135
17.888547860845776
19.639400856988743
20.22902615813031
19.632499588018838
18.47133497316394
17.37179071062473
16.243205282684272
15.859654741956273
16.822052489380006
20.061394570858912
21.608011647627453
21.4350858612372
20.947546160498653
19.827567922613458
18.156582799674332
16.816786303653267
17.01085610592068
18.26076824413252
19.200216849904272
18.863527992668537
17.702095601993467
17.799497282257065
18.994207254864406
19.949520943777976
20.056750956304402
19.54028376816439
18.994234395580996
18.206002617190943
16.96078894128446
16.417842831809576
17.136910189550438
17.37507897878363
17.106935661821268
17.090936015230714
17.64863860687701
18.138393058571655
17.936022276635214
17.109839621581507
16.859809215678474
18.033174943293858
19.152715047819516
19.206250438693893
18.906959427985306
19.104255104238433
19.492879543181296
20.005345421740753
20.758929561409342
21.081914596342447
20.62865876843763
19.334371303646876
17.716304953086063
17.182497555431897
17.75670261878667
18.593909234941872
19.334808205497936
19.95858286215096
20.53017714039118
20.459714993029902
19.628509842426933
18.098484276195656
17.218318728616456
17.452168981579657
18.3168452277166
18.706668849952276
18.353130114479274
18.058805808424204
17.79560408620787
17.50522796014875
17.288142018474947
17.41287580348261
17.265774325645314
16.072293140952837
15.143490552945954
15.164400084384116
15.258318102877215
15.29748021368592
15.306207460259987
15.557539933437493
15.617908379501161
15.594845935168623
16.452514476110036
17.31163935614721
17.614275861628578
17.1685687170906
16.897755583625646
17.20009665176044
18.40406660241022
19.0929456118285
18.38554423222893
17.395967345675825
17.095563603012838
17.180739758244098
17.134829807242745
17.511985534614162
18.510178673478002
18.630399567340433
17.218275796417153
16.231874040742408
16.656920928758108
17.647656954450106
18.509129535198962
19.420711668331915
19.673959214045396
18.860483303842866
18.514954764160894
18.7200394134608
17.894414894024766
17.789509773226115
18.677081514585815
19.292145507568772
19.512321877997223
20.24569038821083
21.223875066205053
21.40483301903852
20.313189085009263
18.531613798520524
17.714155242659057
17.135297003659506
16.56599377976895
17.205398221200255
18.335691765010438
18.342084718650504
17.751059858142604
16.8565739149731
15.709861881402276
14.808576503326533
15.494560049789039
17.48915523599499
18.673069900615303
18.727142270112616
18.007534462831302
17.11489177429347
16.146804402964772
15.37017392293208
14.972641386659376
15.378722709228708
15.563784864585152
14.628369344625108
14.316138476445541
14.194440645931746
14.78266969368039
16.088268664564684
16.669477153728078
16.726877234421032
16.73939605867592
17.25974050345772
18.01208472660416
18.22284094776221
17.899816941190878
17.568774724657334
17.47452448348137
17.793944118578423
17.823973127158325
16.89968540858617
16.07157311571032
16.2968401366202
16.522745223915045
16.1272875150206
16.01256476177086
16.254757174227525
16.798064987909882
17.512156229992776
17.916002622748543
17.39012305412579
16.58257550750006
16.329056865680993
16.99301894871582
16.81598079809755
16.325954353229836
16.35849639622217
17.05807565356197
18.501344097959553
19.467557301118667
19.564433552520466
18.681855805311365
17.235157456323662
16.441970493415983
17.613172087676727
19.45389124782698
19.930644863797717
19.473396434040865
19.45447030997181
19.623580092793677
19.267103868977973
17.823501143608073
16.104759338794427
15.408059022884329
15.014832040047157
15.14509066603003
16.760978723205785
18.087686793306215
18.486048631533148
17.367678764695132
16.113744241177216
15.496767668367811
15.863669151035825
17.023986708774274
17.134148457003388
15.88061114431445
15.129416110044996
15.879458781720075
17.61295487989813
18.261510935552856
17.832148158171066
17.132236314765407
16.689143193532708
15.63538788678135
15.039865026879742
17.293574702220237
20.385241615554744
21.865238258784522
21.454723054278155
20.52949091429739
19.39380492181976
17.610791118844414
15.278089857086494
14.681282485839816
16.122036223487207
18.04202755113444
18.71255000375322
18.33624934397362
18.728334518386053
19.566430350184557
19.738906199204592
19.25043384600308
18.57362848073638
18.069293098141433
17.050189689434596
15.877148028120809
15.876948151169247
17.058939904947447
17.37552754386009
16.92050441263007
17.04314728749354
17.859200975532094
18.90422202838885
19.22208795108422
18.718504354333668
18.173507139301737
18.744421676384743
19.257905001816887
19.15639573788897
19.216601014727
19.698788054646382
20.127781507280616
20.377660631603256
20.419301995000104
19.95986533983167
19.20056847615562
17.80720545098285
16.368552976203368
16.250914006704807
16.823894772572963
17.35003600291057
17.97960739133107
18.757132083351664
19.74513580380205
19.856301351896683
18.708275531904516
17.31020900316953
17.256263323176512
18.05719149686828
19.295762744874658
19.4869748521043
18.774774488058046
18.292052957034514
17.90179213982576
17.501312383285505
17.167301552287125
17.52468723026815
17.514244887340155
16.55187140392856
15.950266559744108
16.14685900098649
16.231356406378396
16.19409547938297
16.129835638266297
16.300759564498073
16.376291133320876
16.010644229195787
16.148462133808536
16.509082321150604
16.598638498346663
16.07810054328728
15.71591074592473
15.959494619841601
17.136390511263983
17.841192816487716
17.337084571307958
16.526813005048297
16.148958008867453
16.482618445183594
16.99069820124822
17.521068868698674
18.309348793268143
18.5591609275438
17.661081250931055
16.846821218641434
16.947230817347734
17.118928362327054
17.215131433391505
17.92694585102866
18.730344732568156
18.50632078379965
18.763275115928284
19.085967884217926
18.187312506661062
17.889915259453446
18.470578186605884
18.847134339820073
18.81737383185651
19.14820597935142
19.873262341363997
20.33545467506527
19.968547906247355
18.689288419269097
18.116543648102038
17.97036583705781
17.433359719024786
17.464620079983828
17.834652018004125
17.802712540667525
17.9747540666643
17.71105796706773
16.512269798096515
15.548552223660758
16.04641868711765
17.504761659224613
18.035658633884463
18.00920009840389
17.891101961555833
17.928578383395205
17.73098052033146
17.1839979269547
17.033556915289957
17.365284267982673
16.90149842699488
15.155528610754816
14.24720954454239
14.342659307991655
14.963531683943279
15.808246597247999
16.37599146297532
17.27029541604195
17.841802465729145
18.18946648402174
18.200380171786243
17.940035798745765
17.772201272867985
17.635100110993957
17.38455434944542
17.89790272788264
18.320623706118717
17.392100831824465
16.179198020129885
15.774476147653889
15.666809958299785
15.030165477930293
14.995929656914381
15.708230906470181
16.904163174490336
17.41030489888465
17.22974674555888
17.055494806333705
16.70786913944421
17.079892059773613
18.33446807760149
18.506516919637907
17.974195361937014
17.559761353643463
17.47118657850215
18.11245292907861
18.867849593024683
19.139638250575263
19.00311651335609
18.245387214047657
17.488415231409338
17.91841914851497
18.59269766945694
18.42329690212164
18.23521271899748
18.77388539608349
19.226078663210792
18.86373182357512
17.648117052042277
16.450857375092635
16.287816910063118
16.33316374008515
16.19632622072754
17.219685279463526
18.112951646294857
18.418933402378066
17.647519999127525
16.659458464794078
15.953396004444993
16.16485156442464
17.006530896215796
16.75717397094076
15.178452967222494
13.929067313130671
14.338218546677059
15.860485710063333
16.709054307555487
16.84344472157377
16.47787879737222
16.27678776398758
15.518411021642665
15.277610617045712
18.534343183068984
20.892218480240533
22.034587908470158
21.61203423266104
20.611968538203136
19.566496574281434
17.637254314577632
14.551186134804931
13.155817947856466
14.52358703573675
17.23180338258711
19.00893929509689
19.304912931317936
19.483118490787454
19.545262272771552
18.784955753718545
17.726450692505413
17.1689897919678
17.080207624857394
16.310072955386573
15.545586620907487
15.781025180267001
16.829697830609447
16.90388963612185
16.46857444638156
17.079568486635544
18.39862805919729
19.68674046015015
19.999274490978223
19.592541518136077
19.017097968178383
19.192570562763148
19.403833112897296
19.227358597598133
19.249283078808084
19.379090404353676
19.4551982430621
19.40047325043007
18.86504812061648
17.731834179106333
16.638455731546358
15.620226289689064
15.188241440152634
15.827850161946603
16.515575165844485
16.749631490694945
17.04028576415826
17.47116559012843
18.69652149144538
19.398419677877897
18.70965683053696
17.750479063048807
17.990615877493365
18.618007069585865
19.538371753744794
19.399936021997593
18.355776751568726
17.73073280938606
17.60821033574648
17.533680432623306
17.225622303473664
17.387426333252716
17.286724092301856
16.739714286188597
16.68048127826917
17.058065799543133
17.280270733196094
17.440843083553908
17.690729011419215
17.856048485410568
17.867722439799213
17.274578772541705
16.39102109975881
15.725969106796605
15.402149051528225
15.049519488084018
14.96966417540875
15.083230638888551
15.81481450383207
16.574397041442534
16.861640978033925
16.791120720772547
16.542249813037277
17.167806235453135
18.33833507237207
18.89706004663458
18.922009479158792
18.932258441377265
18.772209205019717
18.59167761644553
18.567873134293734
18.224456457887314
17.802807650587347
18.035535096219267
18.61383960408713
18.368289649612404
18.681808669954137
19.02738665069184
18.346809918428853
17.7838808263811
17.544828234628632
17.268287345525447
17.167273029714064
17.408492498208957
18.118981216261876
18.912935537625884
19.24262392642633
18.840331689840998
18.72689269403153
18.814533881076258
18.48874807626057
18.422499564910776
18.37702401879113
18.129352886492104
18.41966035756702
18.43752667640823
17.61485687629753
16.82344716723337
16.82426604572027
17.371723449124428
17.249695749950305
17.005288675767673
16.98701607560304
17.700986085288456
18.292535226794616
17.804913670244048
17.648626213279666
17.9753739658152
17.537739710320906
16.14672209835855
15.370909257242433
15.692425289963413
15.946232075179836
15.770316544471491
15.752225512542177
16.866553090367603
17.432609738084253
17.33824446704825
16.722408712148933
16.151147910080176
16.31859018616139
16.93750465433231
17.166125524456906
17.913937351117145
18.50398080392877
17.93516258311107
16.78417745130772
15.80961580757774
15.372755812664444
14.836815434746578
15.23496726260091
16.28035383992945
17.414348668322617
17.24116136152693
16.472267096094143
16.53231086365441
16.725720709639436
17.466449537508865
18.754792599762993
18.94839807544943
18.525368393751954
18.185327067528945
17.85574866395377
17.565629391832445
17.668618084732632
17.985362524800664
18.573443242007762
18.666109975889682
18.114170933432792
17.95784005682373
17.56526404736161
16.950166031405587
17.011123197619106
17.739240992217113
18.55785976860931
18.865366742349213
18.51394511705896
17.788335049936595
17.3840378625234
17.366876448689755
17.41140123635681
18.3605042641549
18.815174859157768
18.555288236203676
18.02577094713508
17.65073876978783
17.13255462316943
16.92150082742762
16.755239014377295
16.353445188666537
15.260974230360764
13.99048401784764
14.13274504152995
15.501305332813338
16.42992092003347
16.700811679964616
16.1356610967061
15.932851587912955
15.879977282226665
16.491061100942833
19.951960786631034
21.15387834486957
21.731497627430706
21.43323884955078
20.859260371371956
20.236782705826766
18.33555483512702
15.00503142631693
13.081320674941864
14.19299308358706
17.115763029928875
19.26630631663322
19.62284854345039
19.32620380785918
18.747116313736228
17.545115860464424
16.596432128361894
16.51651416613789
16.72225197624941
16.17319997054895
15.424976932082169
15.331972989924209
16.200514267157747
16.52020134855885
16.678393402040573
17.88964512145065
19.378880284068043
20.069940517913597
19.586082129143584
18.760635077316888
18.137837203067335
18.090917206655302
18.257372621815314
18.266922644905936
18.50818662037767
18.685599908360622
18.639357509108873
18.54056145365895
17.87742534632946
16.679148153321734
15.601330258153821
15.098848088572499
15.262567521359161
15.955753746371109
16.62480924081217
17.03499307944572
17.30106551585202
17.080590676463515
17.706583006326785
18.537611800456546
18.693301466776745
18.549032362876094
18.839781288190956
19.043007030532188
19.265103595436795
18.94130017146209
18.11259013053425
17.375369173026904
17.101916968855093
17.124156250764994
17.0557109412601
17.24609844940529
17.464527753325424
17.401734625189693
17.412898537362974
17.732949688703723
18.12888206069641
18.241924146213343
18.617822488494525
19.063633508089733
19.49324860134578
19.07713409092633
17.59010169240415
15.944002899584602
14.96708123508837
14.828082137899257
15.278344016619974
15.438306548836072
15.842929180911238
16.739586727549995
17.54579169936048
17.783148851466546
17.37160013708457
18.00864221749957
19.709120079740423
20.435516729841297
19.90206608780255
19.511560214141383
19.746915182561867
20.18047924344041
20.245201494074575
19.67489422008014
18.938011969754957
18.808241241934542
19.031140442017918
18.668101623128436
18.792058163494318
19.09262625092231
18.885230963789752
18.500845052214398
17.790180071736977
16.933957091220144
16.550490034075597
16.456998964906955
17.135931332771108
18.182787926382648
18.735167671346794
19.002726155292443
19.434734830995524
19.42218003064469
18.856676641991033
18.470458982589385
18.340889964707664
18.030116551365932
18.236149629755666
18.482059358026508
18.18331590978967
17.68414217100035
17.340638112145385
17.3280175437472
17.21092785772215
17.109551949972115
16.867418072694463
17.544417578710338
18.52625992542819
18.124719009060772
17.67674377615522
17.640795029574562
17.303688582935397
16.768682284986518
16.43143445822866
16.749540767806064
16.787672299209838
16.10017896058066
15.516945180333927
16.50446178043107
17.213624260046032
17.11974797088607
16.507539804416883
15.878859233466944
15.985891807375687
16.803141859937575
17.11695882247114
17.501987148264238
17.68612843941172
17.37826445681647
16.86935473270792
16.251210700634623
15.93304395856135
15.623923757433197
16.18532064539915
16.967722969365493
17.275195994263537
16.363447590527308
15.423634074302532
15.624278657072365
16.196110266820238
17.056390561281702
18.132202729796393
18.07829320587987
17.72733658723502
17.649848953399797
17.60207145330583
16.912504721872654
16.468809348733533
16.906669412163495
18.080676214053096
18.87781292239595
18.513699103967205
18.16941092399651
17.353597853805944
16.654934338455938
16.840706483606677
17.114337233456546
17.842580021420194
18.92866460396728
19.649181575731753
19.38312670041031
18.416813456355687
17.70262640745771
17.706689880005218
18.61359113529581
19.04270131153828
18.649425643383548
18.620797404754267
19.211640152175484
19.27220033990214
18.664376367069096
17.399274706758014
16.842199382448115
16.20929028817426
14.838853909253512
14.707402347762466
15.955615681908013
16.96896969799761
17.286166799526647
16.61016173063374
16.694114844381218
17.492668707606114
18.56136715211882
20.367991177207344
20.513800424545657
20.887584737632814
20.89792752980214
20.649875269981223
20.31731644685406
18.663516329451305
15.687284281048615
13.79725102412764
14.754942615534182
17.47387560704712
19.681020097836257
19.95509673622381
19.208594211895594
18.41165513071329
17.24112670706645
16.775968737420012
17.104067300243162
17.261589758283364
16.62953253093221
15.525764380628544
15.056961253096562
15.844203181146405
16.329932461558425
16.90148147475026
18.286506552467785
19.579764447050813
19.64406066637829
18.503056990565785
17.518904606274106
17.07589899056736
16.911606512829888
16.95251948326414
17.302768175188266
18.013370132087772
18.48698416103271
18.508156210641165
18.689272164798577
18.661675597966422
18.089876651595006
17.089665784426376
16.362892308827632
16.181846352819395
16.375747055907343
16.666804996534
17.34254423527231
17.997608012850986
17.70957146332312
17.58496249783383
17.901638950410266
18.38834981446009
18.780971233956873
19.00765769752724
18.867530945911557
18.457126739190574
17.925638083125378
17.617759512993548
17.061115125432508
16.71365486013955
16.629784295234796
16.802767783270696
17.051362414343792
17.516713282834882
17.7522927583226
17.431924760051942
17.383094842054735
17.663739030796037
17.460535925432826
17.649269924832577
18.410391826458742
19.76122536095528
20.2384831897076
19.035965381362086
16.983814614597538
15.645862883982213
15.667960923981335
16.42815699312292
16.65927219380879
17.059167047832318
18.064456896113505
18.819090321024287
18.812420283296078
18.077188020376443
18.241750280661837
19.924181016785127
20.929316387424134
20.56231494887577
20.21443137406164
20.482867867312432
20.819084976990155
20.629749393474068
19.901366692175944
19.40700429964998
19.399508698673966
19.25062502013329
18.84811643615599
19.034518522096466
19.141626849728016
18.938493454526164
18.702838728805876
18.12390146056736
17.230697607524505
16.405189674227056
15.79337505832727
16.134963633279444
17.19848268088299
17.990696873957518
18.75102307613394
19.632658992603346
19.66536283155714
18.83773863021856
17.94893457924315
17.871245636014496
17.815142637955343
18.242287690902856
18.690688598087874
18.505233245252153
18.182817921838854
17.64187356397365
17.528960566667287
17.804202484291167
17.94559362139526
17.604626569107673
18.08152040738204
19.171410992124176
19.090656885813715
18.455161719624936
17.871660320516106
17.295992243346692
17.10507807410663
17.063951651280902
17.55325521192971
17.829799055824207
17.070453169181874
16.024011324995303
16.67234420977261
17.682664520734154
18.207066864695598
18.318599037601615
17.88003089273796
17.321266471735168
17.028179020549445
16.589852322282407
16.66725542973723
16.8392935055285
16.72098300497932
16.856864337110206
17.00962980805296
16.979726924869844
16.7058628830471
17.11361933695332
17.610134919406203
17.311727139283366
16.091191207405704
15.21833007072306
15.379086669921884
15.985572794367918
17.024807225769237
17.91658187896866
17.571267805098053
17.286743715406494
17.48556646474143
17.800301234209243
17.163837313289232
16.264290603778157
16.325015264823392
17.44682837973572
18.621437752667266
18.645913584871263
18.51919155699109
17.64762824743822
16.68017811482889
16.377101188978255
16.020145239808205
16.705755390135238
18.24212811304293
19.750981031899382
20.059086367387295
19.05149271635323
17.642109310269724
16.977489269141177
17.249945721561236
17.861650183882574
18.07394838272042
18.87594289673443
20.24539011332084
20.902229325457927
20.252971399625388
18.55121605955239
17.998818673358834
17.676140860396107
16.37349857410417
15.90588980184184
16.50688190935722
17.28808983613624
17.74429259394953
17.32572731896656
17.896424542456195
19.175315309820327
19.999033464159393