# vtk DataFile Version 2.0
Really cool data
ASCII
DATASET STRUCTURED_POINTS
DIMENSIONS 200 200 1
ORIGIN 0 0 0
SPACING 1 1 1
POINT_DATA 40000
SCALARS temperature double 1
LOOKUP_TABLE default
19.469296524985094 17.702202651337892 15.950755781237163 15.755741595967834 16.12193577152377 15.816517936180817 15.215860195913644 14.058309116087543 13.970441251417707 15.642735883654039 16.244901236689394 16.288465279014865 15.790708989649124 17.376357343344843 19.517454944308298 19.030763363588708 17.158175292085364 15.393817193620015 15.2849649978957 16.526397998653042 17.148233512398964 16.016657535658723 15.005413337427399 15.20166187755328 15.463312754816458 16.57813642709525 17.90980396894519 17.382227878563118 15.272089945758355 14.492176451081962 16.16609780490582 18.57993420132829 19.02158502371216 17.148756532200704 15.056254782834806 14.51537809000129 14.266221390015783 14.2900098289714 14.304121485957133 14.530446325821636 16.272432800964314 18.041060633222934 19.091528300532243 19.40773578332049 20.06881935200399 20.21665122896772 18.985570736371944 17.49958342633389 16.404978819338858 15.460471522292996 14.487263665635984 13.923368432386422 13.39439502781583 14.003357684669243 15.631090427092616 16.38017697174109 16.016381341887026 15.879421645877985 16.015465338902153 15.723061362404502 15.98581998975616 16.48880375262146 16.880679720158096 16.028906835738212 15.248945127840527 15.326997357779227 15.771267503331636 17.654218843231664 17.838847183453577 17.37876425012719 16.26197345389707 16.070553124077197 15.92649371862712 16.658985643659324 18.54823384746915 18.998895082953403 18.49163967106759 17.50899837735414 17.059658830730225 17.0244017735818 17.281672485718445 19.326387291033463 20.312201669562683 20.11967007815199 20.188124849611533 20.96341295581198 21.17031538963328 20.94017891038018 20.766040900783665 21.34471999324532 20.725968615704268 20.290089212177232 19.912957726749628 19.136685773311456 17.626184537559364 15.431116650883348 15.09904934070647 16.162892807809193 16.115603187462394 16.898823431639176 17.881651079358196 18.448720231123538 19.943424360119163 20.173032953967837 19.22805431587267 18.545446102891432 18.707333840422464 19.939055755860633 20.30318950944746 18.564469341060775 16.276589469709563 14.710468588492239 14.920611111837037 15.888925532313218 15.543103935156543 15.347000097190138 15.971465007855913 16.372586009323708 16.75788679509369 17.251029224153296 18.403382723240377 18.906008001374158 18.872391252467143 19.76010572432807 19.839999431605683 18.357260320498412 17.699503288168813 16.995167371569337 17.131504593943834 17.28969550030469 16.061946860858928 16.330009961895424 17.69506917376247 19.168385498773656 19.426891979088758 18.58378318015212 17.53914051905395 17.219319571036394 15.794473825183715 15.259938449847704 16.252799300261255 16.35326168498218 16.76675483341788 16.622075413352018 16.43922058856556 15.965713199913424 16.11217579048496 15.602976160354618 16.04737810481567 17.849962644064412 20.17300029772998 21.201488717677332 20.533461200568826 19.897453924879382 18.923707195097812 18.24722312082095 18.070054084709398 16.943467854185247 15.535591566269746 14.686143032986475 14.78433103677594 16.261447539833107 17.122361268663564 17.237038288581598 17.09602468736821 17.79559029168311 18.260500691790014 18.847581535273648 19.293871443325376 18.151315516761116 16.586497566829532 15.322800199203632 14.966195332365379 16.20515788805085 17.65846624093771 18.73766784852483 19.389161379380504 18.05487208496419 16.878333939309737 17.111178942930657 17.958085384757574 17.609234651358296 16.407504805569157 15.583513054060585 14.664074233239985 14.132294059691036 13.897814244376706 14.250942346811296 14.92906051393338 15.831554088046508 17.399672742418915 18.728076667680934 19.05389435044106 20.018173469231087 20.6340659411347 20.1084920955644 20.752553078023972 20.62359946624977 19.91894638869969 19.877451310992157 19.48501624580891 17.557077615448847 16.246765763725204 15.247913019650515 15.476507675189255 15.289660411728905 13.78231533493225 12.924062271005784 13.795171005197211 15.667495466939046 15.796093820998937 15.104721222002516 14.951616060381971 17.13754180831464 19.927267863624273 19.50384367224725 17.59246158000477 16.271529548069942 16.79579618117584 18.59285972471279 18.568921499950758 16.894692596208085 16.27966184313737 16.92939526506904 17.130448646806194 18.446977721887055 19.79418274267709 18.80938636042314 15.906800783708153 14.906980847626134 16.589495643020744 18.62467944485204 18.823170220202666 16.927407589231215 14.645215524487108 14.233258155931585 14.477047819545808 15.22228376530967 15.513078881864372 15.800331192005462 17.217449803256674 18.777493036148737 19.934992564482307 19.98681989353834 19.751325940438424 19.598329144829336 18.540721151015045 16.909142800894283 15.52146519736984 14.40708865668884 13.544106555790218 13.064048716147742 13.209079634291028 14.510830509244249 15.919405394246194 16.358252627723676 16.92202362531454 17.85308624895107 18.218045346983008 16.83411726994668 15.979325340994118 16.354400541888943 16.642538724493843 15.999944315411076 15.483339118253095 15.94455423591 16.566342997410455 17.197062822292047 16.59450243572322 16.455583079219434 16.422730746751657 16.87101583266735 15.922274919011533 16.228894975371656 18.43073882393565 18.8613726495713 18.246835284311235 17.859475731417863 17.75751560360407 16.63948046338864 16.264277385807 18.523447290120608 20.31482534799987 21.168741840211183 21.58831473376081 21.516353653350276 20.51913797102304 19.557179436529488 19.22972100810467 20.03777805266422 20.37228973678214 20.849221803651925 20.202790159991935 18.507901759990755 16.925928438563957 15.073604988513676 15.196643452287432 15.976184445115678 15.453977395064292 15.46778653488589 15.978994192935568 16.941554425318504 18.790289092659247 19.452209630891193 18.945096369974074 18.66996365944224 18.779229694399852 19.296191901194142 19.494673179348098 17.692596668279215 15.161800461582459 13.600512621988736 14.488596596461113 16.689874209109327 16.998232107634145 16.55205127299054 17.10294001230847 17.004454500419165 16.355430258802883 16.252852730438175 17.047022540476178 17.626006894810047 17.79905043559733 19.117451457911276 19.64680073728311 17.963001033430835 17.15886297113743 16.94613068634409 17.192023079715646 17.080104125242194 16.18662017474185 16.868109751395192 18.397322711443117 20.223896861089113 20.411539922808434 18.500411475786407 16.75943619758969 16.05448238425768 14.906206551339059 15.044178308652652 15.79577067893335 15.601016319559054 15.427249538171258 15.18275170010133 15.446884192986678 15.329125032933549 16.25003250401957 16.321991255944596 15.755501240439965 16.77128719354261 18.917562217213483 19.96124012788014 19.43820153384725 18.710977365059488 17.124396192619535 16.847715478014514 17.307593387335956 16.321531189108104 14.939456891845273 14.372118643899949 14.60046698940599 16.228596217321808 16.824233378090824 16.57254178544323 16.34190640620406 16.744162135396813 16.935654428287 17.787748526651736 19.165695908006853 18.80805333803676 17.931486188637397 16.19469456151275 14.259001338460314 14.77514364399753 16.113307318883454 17.01782720169513 18.007310293681883 17.585796779647403 17.072277711187276 16.833554256602774 17.588509533796053 17.123466810575593 15.432796163716516 15.228782240304175 15.254759577965588 14.85335501818564 14.328279731734932 14.68491852423824 16.147063037018395 16.71424240306586 17.077017272900257 17.548238405675868 18.087345508829884 19.2363985072389 19.865919072873318 19.10646099595956 19.41650462315377 19.45663074769192 19.38114753083015 19.940655300742876 19.10909029059076 17.73386826887091 16.675089944105462 15.514851423328656 16.306961078069172 16.50027894270576 14.38480358287608 13.272926920614454 13.682798835777797 15.116096227998641 15.618123572750353 15.114962706738304 15.466778886571703 17.682623170970654 20.17981339792481 19.63768402813413 18.366928150146975 17.602382160480115 17.628663894701123 19.016238133367253 18.441359852224927 17.11215717025695 17.24749516714872 18.56327528507135 19.112667531018026 20.04756881686947 20.68144629935288 19.334451782194296 16.805540304463598 16.425277474594846 18.013833777329594 19.139237721615995 18.642273299818182 17.26639506039435 15.990657798768368 16.15609726185486 16.185442768099573 16.832746011953997 17.429537034297088 17.633901703036074 18.27218485645113 19.251544176246302 19.845085276498285 19.9049095469084 19.825862257286207 19.38059084249331 18.090489777488735 16.141026974882386 14.66217695099174 14.038844164682146 13.602899914812769 13.34328526676445 14.178602358780617 16.102620908547202 17.152386986632273 17.592264853361094 18.950638636515038 20.307759309099744 20.66244526990236 18.946408315538548 17.027786756250105 16.32411854612845 16.375809046526662 16.4006728219055 16.542015035994503 17.26069607565947 17.637831047744953 17.260038045381375 16.997068747396895 17.876404325381806 18.49517924974541 18.541522313186903 16.602955721765465 15.777926336880189 16.877637711133165 17.03316373234667 17.106321825445605 17.84743200450417 18.184324274190903 17.07225635599047 16.615077546796122 18.39325373871512 20.162812507047875 21.653105166523154 22.261781696069338 21.222189277897478 18.9803267091364 17.387714636282148 16.800202692078017 17.917261713668992 19.56379747692569 20.75453578689129 19.87676841059424 17.58928769029423 15.900637228073842 14.801623938192279 15.935678465125559 17.307687193685737 17.157715676787358 16.57727208966737 16.541563758246973 17.467513032697255 19.201854563422465 19.233932268865907 17.80732486359617 17.610869327019998 17.92579788321774 17.736965875535613 17.89331123711372 17.457802327711285 16.27093726501769 15.130444736322872 15.608290883780251 17.46047364777949 18.09296899772536 17.776319747245267 18.321600772682256 18.08956992371279 17.084636740846918 16.794113814174075 17.735563229150557 18.84589927783632 19.27124598297496 20.554388451949908 21.148553483381555 19.351805532480533 17.58520142542007 16.982186115018532 17.344574151141842 17.515182657026525 17.21609918139574 18.062710374693438 19.453986770631698 21.27068313782753 21.340244356799325 19.2993720880663 17.33756554574642 16.20812977166829 15.238047050131486 15.170334625284834 15.736803731396872 15.266029092313468 14.87290667522216 15.182989114879902 16.06358467757196 15.667288412411777 16.39615918615788 17.207476512003236 15.98603742617334 16.01065691309875 18.00303881836366 18.775199502021398 17.694326753725367 17.450763898456568 17.22725641058039 18.513221664357594 19.849284541170142 19.000265762269734 17.17680808567638 16.012676495179946 15.798822350042064 16.13009849295018 15.503859767383775 14.97277613868738 15.38936962232578 16.565627050650146 16.90374209933064 17.10525518009631 18.020661638846306 18.391988958125932 18.671280115360727 17.19902778780416 14.657738154904777 14.634984047741767 15.787115665310846 16.015036553491907 16.206426206625125 16.352118516378262 16.925918979634826 16.425230423414472 16.477426172675997 16.24493759420442 14.632307615981432 14.760347830402894 15.840678191505328 16.611521414596403 16.412694275600405 16.430363994052563 17.72051660503517 17.81921738487438 17.265835933305908 17.56019245785717 18.557827251536533 19.8799400140002 19.93849029047396 18.477878051674157 18.00293934856028 18.3004300810497 18.64204722695255 19.336349086522777 17.295502951889116 17.5827551846636 17.03590484911377 15.952615240219826 17.28403464478889 18.17010334095154 16.660165242547027 15.430996022649953 14.515246546682764 14.803509047953638 15.228205580066364 15.312712681545355 15.822050090293903 17.45687434976967 20.06623344450947 20.42455403672582 19.814089287263815 18.542998062117505 17.44885940674198 17.943376575650316 17.26819740123903 17.341783706660348 18.270814922443506 19.165383367527692 19.31762260204744 19.85750659046337 20.145861874524186 18.711365991080445 17.1059465042017 17.166743423628752 18.11622425645941 18.647979865895273 18.44489422768216 17.906204309502222 17.29953916514633 17.244794682819997 16.78911691413258 16.971419767915666 17.5191874316836 17.529455786010434 18.132740905892778 18.38081792123362 18.340064520845534 18.743317951628413 19.63931507096283 19.13306638160848 17.710229019724224 15.874116367134198 15.299812627290926 15.70064996801187 15.382396694961107 14.791944441587827 15.861416506749665 17.95051075606793 18.877575081755676 18.95010256675502 20.32871268330306 21.28060974284992 21.706390715147116 20.951897369677027 19.023794591010624 17.322727488209427 16.92062491059272 16.984254801040368 16.908601344559383 17.277266156052086 17.69529642810944 16.83503224913746 16.651634594157656 18.2772709658488 19.750585272285896 19.95858346577205 17.937880614219946 15.978888156398856 14.846033302734467 14.396270337471398 15.316581568088514 16.859980385037737 17.510208560580125 17.08465028909566 17.587658858608368 19.625437453125613 20.930544494197438 21.944618249992928 22.347726317370483 20.813341634144656 18.379107434486066 17.20253693460072 16.466458353109932 17.46841276785273 18.91400293965928 19.155433068232483 18.1279700660213 16.792413422699894 15.740415309344085 15.210817440394077 16.473642777839146 18.459861584783095 19.070491155419134 18.331776309874 17.886814357419553 18.060103821258092 18.868870142828943 18.274821782102908 16.351662722927575 15.64903012435928 16.063200394833128 16.07498635279826 16.192826295327933 17.130467435514056 17.73153270835131 17.23211461710551 17.16391044639863 18.77335568141214 19.45966614684205 18.90036608970457 18.948335044189825 18.88193542295981 18.394649071615305 18.648431726829305 20.004766441920573 21.10026226597826 21.849798328861443 22.59237302273131 22.345517132256195 20.149248560173028 17.983410256912794 17.62069707029851 17.95414455858037 18.029280545505063 17.743975292737957 18.394253636313216 19.538243493869178 20.833511178699894 20.47070767065471 18.417611314154946 16.859103207641063 16.436710520520993 16.292871410155037 15.94013508734346 16.4137219067419 16.27794335036344 16.12758928000772 16.994289341785766 17.697426071567246 16.592318301354744 16.62168564414024 17.719142150222613 16.755949908085 16.211251579164248 17.383009469345282 17.8638822883638 16.718860751250723 16.777478846577207 17.929027951462647 19.854216976027825 21.382169087353056 21.035842673979868 19.792945635114545 18.394357820432592 17.680781452830015 16.607492095484815 15.496411387018268 14.809321067627797 14.783083181747353 15.81284851398236 16.250729696306482 16.04523981920857 16.381536874594744 17.47049845484334 18.52509952501675 17.609726587209373 15.647192118006313 15.866806978246482 16.94754555807013 16.226297226044185 15.473931958953857 15.876740558324537 17.33692395230984 17.572564432537973 17.47093330841431 17.095287282369597 15.649494564979957 15.679868636655849 16.527872083763494 17.451178495378958 17.229760207546956 17.010033094472885 17.61889973003299 17.278462615794876 17.158716446231534 18.46691995051237 20.068115071189737 20.603013167208715 19.413110887055357 17.010992267220992 16.480442950381583 16.86329622614317 16.547096146600364 16.706537506762015 14.483754554239548 15.634392623822489 16.237092992716146 16.210414006007163 18.174974318149093 19.57227547157043 18.75019025994818 17.340349907074962 15.75817708018641 15.893900912387057 16.6417607159116 17.222582128782634 17.05459141112668 17.416032992197383 19.87899911017738 21.21155852227057 21.259900328944926 19.704965469157635 17.461953373689063 16.783263027127752 16.036306265521834 17.286671083805388 19.64034303187362 20.628887806571854 20.22130799676093 20.138057746716846 20.16314385742974 18.72585603099092 16.952318250708856 16.453951262150216 16.956275472364638 17.185251590181103 17.089159331218937 17.05379652382452 17.214860783718095 17.04274272272329 16.602197209407947 16.26228428842347 16.20985606243846 15.970821257002987 16.65189014527278 16.656460695212548 16.59580861359209 17.63551740908529 19.05997992078101 18.628182039457606 17.51285849470103 16.523096405722647 17.248666281996922 17.90841171806811 17.03659685273141 15.82334726232712 16.468739935381915 17.813237422649756 18.84216962341002 19.557239963486808 21.05820401595436 21.247250125780397 20.975258624132838 20.542117925327865 19.029930120803208 17.153315544893626 17.291439915193386 18.18729731031116 18.288780024381097 17.946097216696323 17.722484491779664 16.1461213311025 15.57493671921211 17.65718508345257 19.90846890618001 20.128871402910153 18.39351155064288 16.88755331507578 14.826200072989423 14.0163995585338 15.281870676901637 16.5795553877241 16.559670424774353 16.53020009166313 18.010867994550832 20.142103184897394 21.150522599036716 21.58315160676647 22.221491484399056 20.926799752626543 18.44372915980481 17.321958101619543 16.44121561383775 17.330353993095883 17.731166686858643 16.642619474243 15.901151156347785 16.402554871973738 16.97186446857881 17.342689683023146 18.11401113841508 19.21713592983232 19.838567235377237 19.275667906420093 18.996054913370415 18.727605984617384 18.403871376684688 17.43252256091364 15.964839014474963 15.138364034349362 15.337031744075249 15.793815825275786 15.41541865819244 15.74052683747421 16.942558712296915 17.094156972490243 17.56179312882358 19.544412286417092 20.11973428436147 19.262268990030606 18.886306541619 18.417488732075043 18.151454675356895 18.91027404376901 20.42165733772357 21.428631850154336 22.51848958796833 22.442530910934916 21.04550261070548 18.490398364071304 17.103442430007235 17.902534671520787 18.883018897483712 18.737105459474986 18.335028002695726 18.861934428655733 19.731404914330156 20.30318875493895 19.910448865228844 18.04120770564367 16.9475375165937 17.166582591295 17.037630435242036 16.20796223635123 16.378400996159197 16.773151291829905 17.526328785037823 19.060432146039478 19.351540437728175 17.825721246050094 17.081588535733147 18.218110130065853 18.594175778402857 18.267994425231887 18.41554209975528 18.026692309558126 16.910098024562124 16.98573522800385 18.31109489562937 19.70267842038047 20.969330058185367 21.349617942797305 21.1185258370279 20.062754515258053 19.44081706289067 18.580697038098936 17.99305328451359 16.824824191707958 15.408130264982551 15.493188540077663 15.294256382333096 15.182148970340382 15.570702694867833 16.931315678433865 18.202251115556496 17.773751716598987 16.343893872069323 16.80322327171031 18.34104932078664 17.2528521156577 15.46341439790385 15.436016362231278 16.563749747128803 17.606493664183404 18.273381255520466 17.922713753709775 17.124137944451462 17.358144409298955 17.500338389356177 17.744756574074106 17.458787918908136 16.819022764072777 16.67103377186015 16.471140485070613 17.38115339246853 19.248633384667677 20.624135262551846 19.931466139869514 17.926156275793847 15.318808822906977 14.76335062263626 14.99692576010672 14.638070940062699 14.117747033970858 12.837230473938671 13.891519879987564 15.689402286533548 17.046788854140512 19.548725558433325 20.82180330294777 20.27943667374169 18.904918216693293 17.380990313449225 17.695504350342006 18.439526893338336 18.65774350939933 17.81010365519645 17.75882669507448 20.245614920178696 22.102903674833037 22.619887446403375 21.271378612886085 18.717959844136697 17.373560578542495 16.455215320742717 17.793809198626775 20.207636957072086 20.893436225649868 19.827937884664077 19.496333438525355 20.141247202009946 20.065013823425957 18.639695788199038 17.386766835741355 17.59608800216626 17.581339215934236 17.020108667702623 16.526923895864762 16.899036471266562 16.288103169058804 15.735004655031059 15.800728051418917 15.866620596209419 15.5639660816535 15.417832862146073 14.539132431147975 14.599834527961528 16.41722941605886 17.912193112552785 17.32512295179361 16.604999461234282 16.892347568556275 18.774973966305158 19.46047983114167 17.97904465436135 16.107115103447242 15.800790005926913 16.566676666365215 17.806874657079398 19.701204535502853 20.803357341777488 19.972068451217343 19.069662816053196 18.70751075128451 18.17081432301826 16.489053075397294 16.30274804699248 17.979908185165538 19.24994736473424 19.826271104906592 19.333166523637207 17.033804819294236 15.40886193665047 16.546687243350103 18.732657605236653 18.900950773072246 17.680602040652612 17.58719118191771 16.12110997101628 15.16697323575552 16.046265616314756 16.53279108701973 15.912894714235833 15.337686296615201 16.407934211215814 18.373643148024183 19.869995841615367 20.873536021963094 21.754911660565906 20.742417326607907 18.498885583757875 16.96713085082163 15.756884077467578 16.22217904863557 16.54926997235962 16.210634848378486 16.568945027147358 18.10957971444849 19.3183853776981 19.62179672919405 19.50168489814124 18.87705579046658 19.32600271475462 19.622666008552642 19.83255112927268 19.333146900489925 18.501206633825205 17.407647162856545 16.85064125423273 16.71853878232764 17.155031958542274 18.063058353438713 16.903388145576947 15.433814219702562 15.976427123196862 16.23738360369106 17.580759575331527 19.728212044761644 19.43751819345667 18.24047061083727 18.197985549186313 18.263343931859243 18.546901430115227 18.912650196609672 19.52420984429325 20.373070566306357 21.715448429306317 20.837312627816463 18.682709948106886 15.934141079174253 15.37568225065168 17.275604340538433 19.297023590572678 19.259198368180275 18.683241593865603 19.077936476526176 19.505353854018153 19.088956327421116 19.027595100392134 18.43040188635167 18.14941971739258 17.956634508081873 16.840724807559454 15.82851307347272 16.230419236358777 16.981740594570862 18.074560059853344 19.519510746882744 19.62181891683508 18.486228930896747 17.65383681012591 18.569481204181713 19.80120752820048 20.030327004156945 19.28497569636934 17.576517729599676 16.37102427604765 16.89392500907481 17.47194551744442 17.911081960287476 18.857018494381585 19.579803185549483 20.220456366632263 20.08420836533637 20.155426519685115 20.38372779600904 20.200649327853593 18.581087180816912 16.770247489917093 16.746908561827066 16.461771412289064 16.383792377728152 16.90946920588573 18.028953428503993 18.794126586706263 18.074721492016444 16.980094361864076 17.496468811714166 18.99054143678644 18.194807033847326 16.216693741704855 15.383536270481763 15.157539853059044 16.08520349661094 17.889896044542812 18.333272691284368 18.155556271053225 18.137015778791664 17.64005187566736 17.94952703505203 18.93198468688451 18.884621327318108 18.06704693983915 17.146090890921936 17.866887860064093 19.322253521914742 20.488805293860622 19.56715952480885 17.366605599440273 14.816868267556433 13.722928018510698 13.7620921416617 14.04643299022433 13.181734562106895 13.47784306987354 13.636873708302474 15.051821279397807 17.109828170521773 20.103206999314175 21.197070276489292 20.74338496545166 19.650354915542017 17.868333995279993 17.582368483182687 18.02914634194227 17.912941673294846 16.815073322972154 16.55155544253221 18.700096627816823 20.885573484094085 22.291429865480183 21.800490771978403 19.483718438127674 17.447293821283736 16.55331247815888 17.58172897178795 19.333427354311745 19.917599127344477 19.38629695174548 19.748103541329336 20.690102566634334 21.22473316853085 20.421037741845883 18.564068001964017 17.263756847324572 16.4457570518919 16.029373432997875 15.93092448935061 16.291009753029357 15.604403854383389 15.628487749016456 16.541451384612447 16.759351871186364 16.597475689787228 15.432906475496024 13.452274176842772 13.451388079889899 15.576230832720954 17.014973234608508 16.930458331588895 16.82050113351712 17.264218815448356 19.02631251702266 19.556775498956373 17.990794322392507 16.54696374131914 16.51176778766713 17.400834072880542 18.059631924200918 19.281792065174255 19.00660958463302 17.45791637728753 16.462661734901808 16.868426700260027 17.822945266430576 17.238392898118367 16.746989063044364 18.157876346379048 19.341511144122954 20.70528553775628 20.512561036536603 18.55688183395292 16.470306461663366 16.316269275853067 17.83049551351718 18.316028295391213 17.76240557394327 18.323901750975818 17.589128922502 16.849138059103986 17.5174725828975 17.75919708890918 17.350265879108488 16.25805023261795 16.17714767054352 17.354226798993523 18.44637301620468 19.88437688583414 20.642913152957806 19.677002601143084 17.824277503526634 16.070458208975626 15.08125370640616 15.89290424056218 17.219378622114892 18.192520428588132 19.06610675671961 19.832849110342472 20.375569990676375 20.59487775844718 20.228980164142826 18.580483080570712 18.63117457171188 19.008446049208562 19.74537755402094 19.874738166451728 19.060583409799364 17.73797486602403 17.94747593157389 18.262223159575058 19.01676599707447 19.77843557194187 18.065270338295203 15.97644096360721 16.493644602727166 16.792910565947285 18.2313211569749 19.88270547121581 19.068899935426114 18.25138584023496 18.592008553115598 19.192833756115924 19.332403586540263 18.461655620748665 18.122406448450516 18.820923933716433 20.41763269631797 19.300308026633076 17.020349660497867 14.978940035727431 15.402718825914867 17.638200747551394 19.639757762236652 19.224468842790174 18.209010531552757 18.720022840750858 18.903175947519102 17.894789728372032 18.053908324940174 18.88942193328595 18.68408232920141 17.723595880292983 16.479703073322735 15.478706980778425 15.743969991852495 16.030242856398342 17.26623519846194 18.86067623534435 19.490695685802475 18.5920576140305 17.692856260334715 18.300099600248767 19.416181442526142 19.967938784014912 19.554148584842796 18.020235418153607 16.777290789375748 17.259184335619448 17.06673623313538 16.707830895621274 16.767894219729147 17.301555498769897 18.330082654237895 19.328190819630542 20.008496834912727 20.30659022209065 20.24331348286151 19.007417111721793 17.747070286266066 18.08997041057518 18.69637482242043 18.626239106724118 18.665452582505186 18.89859818442458 19.130472413629256 18.644109026311625 18.029027896299688 18.486461182492246 19.521002286340153 19.60615295946702 18.252862174920768 16.824696504847857 15.310947918141288 15.632263384222982 17.29458830549042 17.263353128237913 17.106616385793522 17.361002380097542 17.505810869090134 18.6719885662118 20.293214458007107 20.45457223345441 19.171373447926086 18.08100211478877 18.539371431765506 19.68983984998015 20.21951378349679 19.206822917854474 17.456816747653388 15.410937579532028 13.96902749215136 14.085429761479956 15.003494415490065 14.182943309617654 15.530041455282365 14.832730553514082 15.283806451864079 17.01843717910152 19.418011653272213 20.141368646164576 19.92077830655315 19.445912018342238 17.666877462913043 16.525302486750917 17.09044200466238 17.675384497542865 16.91661982658244 16.052039521584422 16.660281561621325 18.070151218167315 19.857754154343965 20.15609667476903 18.553823704064644 16.29428204184902 15.437414668899812 15.769179362271458 16.958348950555138 18.255725412168314 18.908732267794907 19.39107856859562 19.847404877101752 20.19096897500357 20.251866941847403 18.949958203173015 16.834979895988763 15.742534347685062 15.97653819738338 16.25628242502412 15.664234653781119 14.724176813733306 15.5505332220046 16.938201855843563 17.026862596693537 16.59573044901153 15.088301137991994 13.244694896456235 13.599839618793046 15.45236073455398 16.682847023900713 17.41950001385459 17.817670425217013 17.65018858649004 18.687228148779706 19.536621749665066 18.448802594309505 17.08866182260796 17.755459273823053 19.142695688593676 19.163781633555665 18.771366598678437 16.947546548447544 15.282498629312645 14.130537598195582 14.95520161457901 17.33030313807163 18.129405188808747 18.538197103900153 19.469965509771185 19.342409432370776 19.946058682077677 19.93374011616526 18.75800970378979 17.02895455619416 16.591597634886796 18.23941979540724 19.430173765004444 19.413722892527883 19.685828023630815 19.131981605472685 17.877894392727363 17.546268661443776 17.70869322040718 18.305493596831937 17.62734971217968 16.495599978172073 16.817255604793797 17.727233469551187 19.48259747066073 20.50060015095454 19.842614692923497 18.16443775333219 16.25930206149116 15.716653853269957 16.90110721103595 18.646901207406824 19.643360185827564 19.775913530524864 19.12843052934682 18.562257866216164 18.97851016970304 19.324336110958367 17.891872314656982 17.38141068706151 17.147783538307245 17.880058632080626 18.8153890310096 18.74407645914431 17.72425298414431 17.3947205927191 16.91073668021611 18.06482286762292 19.44312551943551 18.25611996221898 16.656111974642396 17.394908976461174 17.36924339609238 18.109496849008618 19.349163933834955 19.048212074324777 19.34647100422532 19.715548856202936 19.605889449744485 18.691174522262784 16.818553101881502 16.29951348847148 17.287819308620332 19.017755492347586 18.2879181812562 16.307380598172667 15.145944433306905 16.360837177883038 18.44354475389139 19.477339778182333 18.406701901886173 17.355413456941317 18.06433807283366 18.16210766556786 16.924711578268496 17.161252537013866 18.339662116872013 17.448896629130328 16.048383463979015 15.463366847185485 14.86460977800358 15.09746487862165 14.840903473226009 16.082867330450576 18.52821176792716 19.970180282714637 18.781042697024244 17.653883329670915 18.2445659611386 18.936942314862957 18.958857009250316 18.746949607359838 17.9698071333774 16.99263652734558 17.037521019031537 16.611708812408537 16.31325548779856 16.344951159654613 17.101745414070674 17.90608068988033 19.10051126973179 19.498322604208393 18.80708930331485 19.028282102490643 18.583201649782517 18.087841235161438 19.02135634225464 20.84549919037097 21.185047572146203 20.049211869810712 18.856843846112824 18.184575053108546 17.988170762297624 18.336499279337275 19.42448627628977 20.114568244163017 20.362092814233282 19.610410217824555 18.432154360052234 16.66056366372777 16.35871390938922 17.13836233993967 16.67892566657998 16.73126970234942 17.190521370430165 17.994778407512367 19.10135920361584 19.96497960425294 19.416487672367687 17.982886330711366 17.478175394895004 18.16345067329888 18.78187641973623 18.59098841718188 17.97057185679581 17.831226341995322 17.281560804556978 15.807177615273583 15.699292389845565 16.829600987579422 16.06214585797