# vtk DataFile Version 2.0
Really cool data
ASCII
DATASET STRUCTURED_POINTS
DIMENSIONS 200 200 1
ORIGIN 0 0 0
SPACING 1 1 1
POINT_DATA 40000
SCALARS temperature double 1
LOOKUP_TABLE default
19.415095128582866 17.785838749545675 16.199885088343837 15.9206243605481 16.16836525833034 15.877301766492618 15.172452439404594 14.113472519294117 14.04115695053168 15.42675475181923 16.095596084734847 16.15009571018378 15.922367078634403 17.37943141274253 19.205210752684987 18.838590148835703 17.190170217143297 15.651539962780861 15.51056631845741 16.51868696542403 16.951203212910677 15.97265447039846 15.162886182852569 15.36105203119307 15.726744078060992 16.757839506092537 17.89288012592209 17.410769831186116 15.56460599427407 14.836885257423724 16.263599459197284 18.357744897064176 18.759584953348984 17.158709628408626 15.363120936250704 14.794587658222774 14.519888021745171 14.47413741610652 14.470948003742459 14.810271614603959 16.38402632447376 18.066220261831376 19.060658244275828 19.402635412993586 19.92186767401 19.948618372468346 18.80772291419798 17.429184016454418 16.378797804189407 15.432033463942227 14.514109419922189 13.954544624065317 13.583525790601664 14.220582765293738 15.651781384786384 16.36835231104394 16.166998823234316 16.059960683713072 16.128462285790288 15.885589451236521 16.035674777143868 16.455649303356175 16.745590304154977 16.04489890659528 15.329854827428253 15.34472135396057 15.869070278763877 17.448691533699325 17.780959919436583 17.394505034376888 16.4978247789144 16.25241390302184 16.142669121063175 16.791749735231868 18.347522252324787 18.82190502326815 18.403480336060014 17.577180354592873 17.16638854832732 17.140388410852864 17.49724423495939 19.21503845630179 20.164100339520854 20.119241119108963 20.222349813938905 20.820465162979485 20.995630434947255 20.808574543064875 20.699337495377428 21.10994892740853 20.64774253518703 20.229894436323132 19.832206176492072 19.053670622639903 17.56533365513137 15.646614086642753 15.328582220209805 16.158031360859955 16.23450202604079 16.888887588317072 17.827209138155393 18.564319900664735 19.848717850195207 20.032071875401563 19.206353078379625 18.641148347964545 18.879163874204608 19.88861902106093 20.077048084162488 18.497004367025088 16.39717582531661 15.017269338845747 15.162346714852402 15.930636908799515 15.713851758157604 15.516999808249846 15.980771600860631 16.36194351716484 16.74508339175558 17.249637055708185 18.235416680915954 18.749134390484993 18.90416805764026 19.73678099116726 19.833003369285514 18.58568155204737 17.8060690397601 17.129905701916563 17.196806659776712 17.271034486976554 16.36352525831194 16.5925637923097 17.78194540093482 19.040746502067556 19.254966452463446 18.49230290259068 17.570088420556065 17.134166856899977 15.935306942853133 15.442931131405189 16.18066582977294 16.360510808049614 16.686168814630758 16.57503575047993 16.401906129311374 16.01864501969115 16.076123344891396 15.769706794741765 16.211504973893856 17.843194789146885 19.963521993962953 20.91308790044382 20.374138956573862 19.757251477369117 18.89436503588514 18.2890034080968 18.002471547723275 16.951935020093927 15.627564936850026 14.80248165720919 14.894405007813413 16.10446819877151 16.91492309951543 17.092977187425717 17.092286059804373 17.712649434844177 18.18893929151557 18.73722464644449 19.06772757843734 18.117419936473826 16.69859148150802 15.530745579015496 15.224490798804913 16.30006038334476 17.679357293273853 18.69350058517103 19.19638773937322 18.133268656164205 17.096428913804854 17.139052649132907 17.73138404477524 17.429079640734013 16.345260756791202 15.515562863709086 14.770397759297522 14.326387570319774 14.134269545244361 14.458054276748445 15.152985046202316 16.082399128813876 17.48713271098259 18.691318428053993 19.17731501588126 20.0194257877642 20.508078667724295 20.158060139875218 20.613265211989503 20.545437605317968 20.004868606741095 19.88801221451409 19.313441040173355 17.633768454149717 16.305028796402514 15.436872108058568 15.575268408231267 15.334951507386739 14.02971110739543 13.222953036191235 13.898746558772617 15.463287097655305 15.737518415077599 15.259820764000729 15.284974082878318 17.25335624334333 19.616669239014072 19.332531873416432 17.67778432252278 16.482710163743825 16.851975829959247 18.27923351799198 18.27376806619041 16.92295304268572 16.37070681593358 16.893018610976046 17.253421426895457 18.419094565923185 19.48974536205277 18.561189307675118 16.11045070327552 15.256571785204837 16.70920218984972 18.487726801302912 18.62968143802014 16.949655551960525 14.979330757795966 14.503083833038659 14.665589790093541 15.253316364799836 15.577833963175566 15.951939509022038 17.243254675828435 18.709452838698482 19.74894057773507 19.89609590267357 19.776365875161392 19.540285535111845 18.480446690400935 16.91463471447651 15.55847812597663 14.49972162146854 13.679382722699073 13.236408604468622 13.429282478068334 14.62671272113344 15.927454500753003 16.483115677968236 17.05567745273686 17.8440258621862 18.0885176889296 16.970869080421796 16.18690392808812 16.366465688002773 16.561907891201614 16.051690775640022 15.642644684317007 16.018680752238023 16.588195974478054 17.13580412413153 16.777259273810326 16.67364274190691 16.635475685986346 16.842499315342142 16.10608585573061 16.396853215026976 18.14501673516139 18.606638898272216 18.17599528823594 17.843072670954157 17.650007609699255 16.786695934396228 16.627042945874514 18.55218073129394 20.216446714346947 21.071831261218044 21.468212838444874 21.34862019793407 20.439189988541447 19.548297230758436 19.256855885137536 19.92785108541288 20.32966277956326 20.675887353279187 20.041197963211502 18.483796751836284 16.88645554692605 15.269903008157737 15.324716804200104 16.003766367423946 15.713999180276904 15.748702756660734 16.25071301296025 17.207303187209686 18.81728430737008 19.381039063392947 18.889388330698168 18.601252085121246 18.72997834427778 19.178801664208308 19.243134896433446 17.68046593596731 15.45497844055796 14.071668269558213 14.758629281359596 16.534800401694945 16.906174596161396 16.640753512698517 17.05430109206967 16.996102247629732 16.509537417097654 16.480294959254348 17.217332850884073 17.817419475273745 18.12989458186059 19.23621240865357 19.607745298935388 18.198189962842164 17.310657342246653 17.0086011742419 17.175633471941044 17.07506810545065 16.41543378652415 17.016110198472 18.452691646309635 20.061762086303716 20.205625062328696 18.57902877495366 16.96795618692933 16.143738488845244 15.135976075909618 15.144484142210665 15.751380773301335 15.644533979847603 15.502644801758672 15.36088773263448 15.562612268791657 15.50856599361081 16.18450322575288 16.285938348562784 15.949676802998217 16.908563950813686 18.841411863102465 19.810166714648666 19.35663875396632 18.638398969855505 17.411470440081672 17.186324440181973 17.473719844980426 16.580249229207205 15.27480066157887 14.638487925657099 14.849842305673995 16.13222416181055 16.656802422259858 16.493573120088882 16.38170476276993 16.79995755349111 17.09922489682173 17.856852526723245 18.918497949673927 18.65466596607884 17.79690141129088 16.199657772404283 14.58826784097194 14.98279517349154 16.19379025886304 17.08440862878856 17.849668811397684 17.51511866710529 17.074397371057806 16.907371921964693 17.418246026194456 16.980852878485138 15.577578828898135 15.249262824366582 15.226543229290417 14.93928282788683 14.559553144928906 14.90417535355817 16.109715433382544 16.718570452740085 17.13991571605864 17.66872110055871 18.277484811477816 19.313603654321938 19.815128884002554 19.22702505234417 19.38871884106655 19.44378625033538 19.41037066043483 19.783214999658572 18.868564733386595 17.71582286140004 16.66443618320694 15.70687232279132 16.272514650904636 16.345541541368 14.625850436691353 13.583046977870453 13.868820411660238 15.058762309350008 15.521130808955734 15.219511287658566 15.633957725036465 17.644841069218824 19.870156004826363 19.611603662660755 18.467849868733747 17.651909301045745 17.655599709933718 18.702935461521893 18.27305354865782 17.23728008373807 17.354738388852038 18.4103789242029 18.990373336169167 19.853242758879915 20.361794683458353 19.12280880790389 16.94450883882805 16.537254526924176 17.857486588136595 18.896316920216 18.544693317483883 17.29649736627268 16.117078793453754 16.083053531473627 16.142447153536366 16.693934858121306 17.227432737455622 17.49877504263696 18.182771714269684 19.088129611324952 19.663040346410973 19.790585872445572 19.759510461957444 19.295503878608898 18.03829581712081 16.237985051700964 14.881908753109808 14.244581361907674 13.783631003342055 13.559292266029914 14.345067116638285 16.04996765268595 17.13441026834493 17.683508784593542 18.89162935310244 20.076987890800144 20.34317920709776 18.907155489076327 17.21637663124928 16.48567841860373 16.44727478237017 16.43241714268903 16.539747661843283 17.121933198827662 17.478275737566573 17.222704083816158 17.03603006616024 17.769975675577758 18.365098037897816 18.34010377668147 16.75684366233109 16.008407859200712 16.763225298059133 16.956824487122333 17.105570383145093 17.72084292441911 17.956653560809666 17.100803269706194 16.87960982223465 18.515475162572894 20.20970139737954 21.547500681926547 22.051715978591197 21.100538783920985 19.123695946517493 17.661756660292692 17.14756783782898 18.11296395449823 19.52529365146107 20.427491025291225 19.61876152648875 17.646663306029495 16.042121323298005 15.073796832919975 15.955786351214854 17.15909337525364 17.138970201739248 16.692763979869653 16.708809200601692 17.55229336632008 18.987340550225692 19.036375977088984 17.880514925304148 17.582789255034445 17.799597123700874 17.750113909034432 17.828826771733283 17.380396535788737 16.309255136691664 15.335596962343368 15.778864144070043 17.39543814205827 18.02455118002453 17.835146992230754 18.200057373922782 17.993396776926353 17.20244322264322 17.02664567441188 17.89266567247619 18.88841246726997 19.443236578814044 20.536466693007895 20.900914333894953 19.299601263588436 17.692277842745526 17.122856177549203 17.37067268276738 17.485219232607626 17.28116189474059 18.0448339476186 19.39776277884535 20.969024317881182 20.979977486369297 19.156800015028654 17.329405026713662 16.24004566360079 15.388170351733226 15.287835580911564 15.715067062789892 15.3940657021742 15.10532833927345 15.399357288593123 16.05558239847353 15.823719697305025 16.409443282064313 17.004097280932232 16.151808847799398 16.279003580573715 17.93138654343126 18.63754576930501 17.831292130260174 17.519969269756633 17.419591024971208 18.49323041943717 19.56676818874993 18.857196935617484 17.272673508802406 16.173933246894023 15.916273564441797 16.1098041165756 15.633934444622142 15.190023087335605 15.49671098709253 16.450905644858086 16.84029349745142 17.132928439104138 17.92784558019284 18.32281209629422 18.42759512029208 17.056530742718035 14.9430866586639 14.87359626100557 15.846149712578079 16.125845562516194 16.301715628996874 16.454814723639856 16.88576591288775 16.604357040658773 16.62991671977948 16.284394625940426 14.954697796218827 14.976093456427563 15.82503505147243 16.445933047982443 16.325227742531656 16.43411304532574 17.463653625014967 17.617996731838243 17.318754861021453 17.706866388520666 18.673823375010393 19.76899892866051 19.746827769809414 18.496021558020896 18.059873588675334 18.27470474549579 18.549524472549074 19.070584931987415 17.175822880727544 17.349398623204134 16.890367660519797 16.149215077068625 17.235605721666655 17.929102459214388 16.664218136840855 15.454147028327336 14.672843550551576 14.94708144617127 15.361276416898525 15.50486254881441 16.009608768618648 17.56048079996966 19.85638774693551 20.326256213492 19.753850091152668 18.58131599480038 17.607014672658103 17.840841255898344 17.330868365409312 17.405045318201093 18.295868999795232 19.16356473354206 19.400347512615166 19.863807530863323 20.031021522819024 18.74539544469298 17.22508306524913 17.13270869489656 17.966117524745886 18.488264587594706 18.308277283794226 17.769705581307054 17.219803847926904 17.092298120178796 16.763982038783713 16.919006220218442 17.3459132387191 17.445402399155736 17.977523853620994 18.270846253621116 18.350197800369 18.7789222252879 19.473981923311076 19.017726249840223 17.690424090382567 16.073875786472726 15.506592881237502 15.693693425655502 15.356825976117257 14.907655897825983 15.854707905542167 17.668932828848025 18.642703057611158 18.987020017643605 20.22252944977882 21.11965068279346 21.41956165844269 20.621529932625332 18.86617103410753 17.34063396024997 16.948567623532785 17.024111898526744 17.031558811811752 17.335209647910023 17.584026423671748 16.877501543233638 16.75437966810111 18.16795685508696 19.51609661709575 19.63317675204083 17.86465631969301 16.12192019792943 15.096689063614008 14.730488011951946 15.532572846374249 16.83921403065171 17.38897589052297 17.11803016282531 17.672281296871358 19.49654837557388 20.843853866559673 21.82134715952713 22.1432490397877 20.769751146782106 18.552971710741158 17.291327911443833 16.663024993978897 17.536190915020683 18.756201073367023 18.958521726669026 18.061608665704842 16.865991739368383 15.926608377625714 15.533398070320132 16.634130435279165 18.296371739489953 18.84241745105512 18.28361802786463 17.925146823433444 18.118338838209315 18.728726865216753 18.169088120742057 16.559730130427333 15.886985828803919 16.14580255937846 16.21676319927949 16.34817992133248 17.011442277040512 17.43608268162169 17.07699037164451 17.20620935262379 18.63434631551301 19.276066055809927 18.875669857084624 18.866090256948016 18.733036694129527 18.329577256287106 18.608001696893957 19.81686150024815 20.89052843871521 21.664778866022303 22.2896813028866 21.932070127670187 19.92956486371551 18.029267160870486 17.654613495068542 17.954819321868573 18.01604447251738 17.834668533181162 18.450941735509303 19.550328868033994 20.662852954846436 20.329840384661367 18.502067978854097 17.01693305469826 16.506955878420708 16.253755929472504 15.96691856477683 16.30166247956695 16.238536851976296 16.232489720827864 16.997827942046417 17.540387103738805 16.718728231295305 16.73662626720735 17.543637127559535 16.888360792315282 16.531620280335915 17.469241944574087 17.81957539786942 16.931185066546337 16.959984364170033 17.971133599767192 19.674895373605914 21.021912151849527 20.778999214141045 19.653215197330567 18.38638093949016 17.645627214117283 16.73816737551809 15.76048551202616 15.074882156019987 14.998347415724165 15.805315404315474 16.179724796855844 16.12129754809787 16.526457898660077 17.500640508978403 18.328193555506065 17.49105082904391 15.821949671097036 15.928651767722682 16.811156774843525 16.295200993750143 15.652011708685974 15.977217555672839 17.1293458219001 17.440580224348075 17.420650233867207 17.00711274563905 15.829257841939846 15.826016373012054 16.554322196884115 17.29905284384232 17.173929216030263 17.016427310074736 17.466353875306716 17.275999235347246 17.313495985786325 18.481427379279864 19.881754293544283 20.316655389646726 19.218303036823727 17.156678625897055 16.551310807285226 16.77347587307888 16.600870932382968 16.741956818419343 14.66515792720007 15.610672924026222 16.206027730059077 16.433613656942804 18.158103048825613 19.347426128241416 18.63542562318314 17.297139540067562 15.946169544950221 16.013884320956 16.655566480150352 17.11692673510786 17.067948921676038 17.63041498683994 19.816468751586115 21.0860191222258 21.09566442714778 19.677757717899723 17.711919952363996 16.94427223027635 16.365061155627203 17.4355608452402 19.443822074110244 20.38801297144297 20.132838818306368 20.067805741583772 20.032428200085842 18.810693466936534 17.233132949971676 16.6978593522166 17.08931153720831 17.310159721327846 17.200738896633787 17.097156327095774 17.15820327992677 16.96365067383302 16.556712281165595 16.310561686751203 16.28092113911169 16.148400074881295 16.617562151919465 16.623098659124413 16.67695001957141 17.65458231430821 18.838151083641623 18.490855635946925 17.47081880047701 16.653991408084238 17.20403452356863 17.70473032112867 16.93774609277047 15.921904979716535 16.42839309946365 17.684740067128008 18.724656444786262 19.56690762459911 20.84204008784341 21.078362987908903 20.8342527737753 20.307144324906666 18.913800343871493 17.285644175174337 17.252250059514132 17.999119551972857 18.212316740713536 18.049629437271708 17.7430438687469 16.38377941742567 15.902021637595158 17.63381049355182 19.596337949148083 19.814599161613806 18.30302949113388 16.830969838965657 15.06601613070022 14.355171550785572 15.372145514625313 16.493162545720594 16.58689631840955 16.615212401787907 17.898565412898446 19.838987664722286 20.956648853531917 21.547384261477333 22.00586415081525 20.788550748084212 18.557986072468406 17.31455184783669 16.543257441876438 17.212572814141375 17.608399851671354 16.860026908369527 16.274029904181656 16.605064157772773 17.058568601024767 17.399036367167422 18.11908949879603 19.07266604915332 19.613341448857767 19.232676241904233 18.967318354866038 18.716919808143356 18.392350560234984 17.465559036552133 16.149895876115288 15.429906868077278 15.595548074499426 15.955647831791506 15.682796163067826 15.917337127075868 16.837980477558883 17.062713614482696 17.654895894380903 19.355566011650385 19.865907171900112 19.180691293469298 18.82591962769467 18.462512558531657 18.293338641806855 18.948241241130702 20.2564655576268 21.293059037562823 22.26286488957261 22.173131524560876 20.832711996852286 18.514982037817166 17.2322654108192 17.846170105998493 18.733036201850826 18.69140589184172 18.395383007071338 18.86951778381912 19.6613069775268 20.14960474152357 19.75111113464034 18.177526619910026 17.159853529577916 17.141112283630566 16.897988803102354 16.238361699519622 16.384451630897036 16.774167941531914 17.510122897595238 18.799498389367997 19.05981618763423 17.84284498793447 17.255449945055553 18.1355590824456 18.4751513389596 18.278028376260764 18.350163324415973 17.916856438334978 16.96672619155732 17.073005374055654 18.213939271523262 19.536836762870887 20.719410877333868 21.088870742338752 20.835027401470928 19.941704127588118 19.323739458169143 18.577666133252777 17.916003510631285 16.792764476843754 15.613445648327232 15.617620154789972 15.496431559328641 15.427168860769154 15.858368305917137 17.068975496182624 18.124224130468885 17.699626239687706 16.511992300352745 16.874770670097178 18.043836134453077 17.184108477030207 15.694757621483742 15.584950344190718 16.50403650539063 17.435278947625175 18.069786251865963 17.83177775895995 17.16649098771522 17.27284049100845 17.436320884240043 17.6912118186444 17.534580922309708 17.056598027413887 16.875291411216896 16.70894210818428 17.49910481779552 19.142432072477384 20.36747989761354 19.820651589539242 17.954485873089066 15.613930381862222 14.911651151067698 15.013865415547372 14.749544053065495 14.353956061718165 13.18093806037367 14.100669270720548 15.659650395266635 17.08064498549333 19.35513430709277 20.559715287448714 20.09344820992192 18.810507206113893 17.44129619378066 17.567389849632587 18.18894047611441 18.365160257083534 17.72930891822928 17.849606849848264 20.018893382113873 21.775976520668152 22.277248416953825 21.05521930809174 18.774405669386347 17.382383177056283 16.635412898367555 17.821887905895377 19.91324568468774 20.615735261043152 19.879766030300033 19.65137318548197 20.11700154052073 19.927127189060666 18.66282278436648 17.535612746759906 17.50184596770867 17.40874842192829 16.953605505526003 16.59294148825233 16.789440946709423 16.298236168965573 15.85702876806347 15.908146355398964 15.948637691103778 15.703121255517338 15.469053860033933 14.725963633621458 14.842689699749634 16.42628697122838 17.74887549237304 17.38863375186243 16.795591552684098 17.035403625209184 18.551037598561525 19.12525661124688 17.858766072178398 16.26605279419833 16.02639393101486 16.794757977706222 17.974231079907316 19.576143331451117 20.486823535758997 19.84471236194097 19.05098187393423 18.681732395771046 18.116779169564637 16.749932144581432 16.600376683987136 17.980035926775994 19.107528067048456 19.63049750657309 19.129718120716557 17.15468942205474 15.775065920607295 16.72442610633935 18.57902878795538 18.828220284511755 17.840044871059046 17.48000945381803 16.193001362466543 15.38608611447827 16.078855546114312 16.54492994274498 16.102967401034153 15.678416483044591 16.615388826110593 18.39240791336526 19.81167469483538 20.826033103955375 21.520159486905836 20.55084970590031 18.498099504914403 16.961965274738215 15.916442962294397 16.288928107142233 16.659317327686246 16.494116242142194 16.840716802759687 18.084461149981127 19.117813616663646 19.453774197594726 19.390158229582706 18.963173868018426 19.287555288034554 19.52208780550261 19.679523455893786 19.283960761690192 18.51392229951061 17.49104711380564 16.91144745816058 16.770239570019935 17.190349050201757 17.832101548463825 16.857164271545802 15.693984752710328 16.093920465744926 16.45955138277007 17.7030236803969 19.50451866785169 19.37704693320538 18.43097462441727 18.311720816605924 18.37696768395315 18.58750956835958 18.895126783118922 19.496176348002336 20.358898899225306 21.461323417066534 20.712343291623846 18.697298117812437 16.283744606888785 15.763675014593453 17.374885366967607 19.100875581744933 19.152689304461322 18.695889250205855 19.026362758702977 19.394288452421062 19.11228266993445 18.973501608934022 18.456176697653635 18.094237871029275 17.783120417704012 16.8261075036247 15.95422401389787 16.233663773533284 16.912172146537642 17.977400752264703 19.289001373425666 19.457774198504197 18.46413022871945 17.76623067365273 18.53775344492671 19.563835780931644 19.772720494459573 19.137126005951203 17.69203351630201 16.61017925829265 16.947302566032146 17.497914556848887 18.001254391981853 18.839873027515868 19.521862583486172 20.060967586852048 20.022386433282342 20.077016492853026 20.167981081913638 19.87129238089966 18.439994998366828 16.893780108793006 16.747138879437358 16.580299794415616 16.541980522343305 17.009845285736837 17.97979564879208 18.634748226445687 18.05839877180737 17.1620508847952 17.606647322318707 18.774088553788953 18.12399195074057 16.432307389069486 15.585830259906599 15.409463398849674 16.25494075783123 17.74417158087336 18.141411387902746 17.984912641293786 17.959706841873246 17.684713041322873 18.044975568764023 18.826690313678615 18.767447233270573 18.037030565099176 17.317901564786624 17.954463776126 19.305763716148277 20.275229763353742 19.44215142704754 17.397815650421038 15.061226823781574 13.96098358261296 13.933448896259463 14.098245979598403 13.417691932995568 13.692953142853543 13.889196831284172 15.195803603363181 17.17230614150946 19.813242878082278 20.909819683658487 20.553107827936103 19.496668494201433 17.931499955147896 17.563145739237818 17.92326015004425 17.85934855751524 16.98640084079383 16.833860915612213 18.665283791182492 20.661996263257187 21.91112897516977 21.42462312115196 19.347857259254706 17.44240719601593 16.61965606016606 17.504675466668022 19.08992708323573 19.74698172756163 19.45012817726057 19.743774562311113 20.521136692696885 20.899591725545694 20.143950759284504 18.53245935308269 17.29866786759745 16.52305677637885 16.143695122235773 16.049497794770843 16.205796372473404 15.65716423848451 15.710156230038473 16.447407894636594 16.656513661920897 16.412792770771595 15.336700672068616 13.719740254295477 13.769492610738016 15.588853394616658 16.928416673281866 17.002680490139642 16.943900782070855 17.383174785677657 18.859971571361815 19.34578253932267 18.031714839868485 16.697159583937054 16.65372957336823 17.47019472072394 18.178351599057216 19.136548260440485 18.864668673667442 17.534599738821125 16.621933194942628 16.91941593506895 17.67907701346417 17.273468385278253 17.038710851644627 18.241325503984953 19.33465455217596 20.408071229075038 20.18003590086103 18.42310324421847 16.60839123731048 16.51907475626404 17.855859568220684 18.37099793102786 17.99069659249351 18.26540738883117 17.589551799824434 16.911335858321678 17.35383940583203 17.584414557111728 17.248923129113464 16.39133573725212 16.35064954679212 17.405596411141556 18.53960341858188 19.871381940201083 20.5623482560424 19.69649663324326 17.927095816780472 16.24691405778243 15.367066037814727 16.06099265701676 17.252025972795128 18.135142518415076 18.899041685054208 19.591635636425263 20.083202956940504 20.297450948185684 19.96358943116661 18.685954699506667 18.616726820565486 18.929323974741177 19.529863742507715 19.64073855337113 18.935362408675743 17.833967808249714 17.815842583465333 18.046960876293387 18.752671215693084 19.357668233065652 17.936194081283283 16.217614764138496 16.52156521264745 16.89930075579287 18.181358562536452 19.599356733978826 19.092039794159234 18.448562250479895 18.676183222239704 19.100644171320692 19.116250209851536 18.403898986326887 18.180376021265268 18.89183203025564 20.162045456829492 19.233659231387335 17.139601437592116 15.32170419116936 15.666409358997274 17.6531704734942 19.373865785815983 19.09897401945282 18.30455487072439 18.661160437297738 18.785461306270452 18.019193293745072 18.118938603834454 18.705205594112183 18.4560730718119 17.566292610735168 16.442788152181635 15.568869043809164 15.737862929446528 16.09748903932791 17.27075713870277 18.79043345952644 19.39107027869907 18.594189594626368 17.81979233066214 18.356745569610332 19.342211945613716 19.78617063476659 19.354319972093336 18.004119092037993 16.914507520856198 17.16060937309361 17.055126530022495 16.82813950582343 16.967207264227966 17.530373010752037 18.455821272205895 19.34075436509532 19.931156945072928 20.139856592800417 20.014700116780382 18.921877860560834 17.83022246171339 18.0745933775268 18.624247244723765 18.651283192236843 18.646449377129255 18.811124613902553 18.946802811487274 18.52018126541642 18.05674772327355 18.524853934669142 19.423868883353915 19.409909779181508 18.181327424993125 16.839261236945664 15.587535944676059 15.859172527925741 17.187786325991233 17.288491302661264 17.199720263727464 17.410872341999028 17.649358197109127 18.679233678149227 19.99982161351908 20.084185093150165 18.98499766372796 18.089280541974844 18.510112968075433 19.51713643571976 19.952918501463852 19.055060356685836 17.451496747418215 15.581835084765942 14.260855297296418 14.280598365214393 14.93547137127629 14.280220853193839 15.432685373817277 14.886119401797664 15.415864787183017 17.05902128017826 19.184324712958603 19.97032111273523 19.840815436621018 19.26650582247084 17.672087138669983 16.657682503260403 17.069023833293116 17.571815392679348 16.99330838190212 16.32389179717848 16.90916848920279 18.218720910169026 19.711430806698726 19.901876793405176 18.45592198478452 16.40927664726673 15.513155157857405 15.834618420841371 17.018064263396408 18.2323768307004 18.834262344141763 19.28364768418699 19.75742869686509 20.069868245574593 19.97369792349107 18.756531241499 16.945382565260935 15.94879202685879 16.065973429978317 16.234591275674727 15.70273718826846 14.949945032922143 15.585384236303529 16.682375408540654 16.779616110015393 16.322576476906644 15.014725547451011 13.510742761732784 13.833779625943924 15.456432766431949 16.616122499407957 17.325592970858654 17.708522629524936 17.723379685641117 18.671424878168406 19.380813856299994 18.47072771958641 17.310142685902473 17.79517196807351 18.954210221784056 19.071279265363916 18.625720767520228 17.01464415526353 15.44373389263952 14.475690051359125 15.238608369446549 17.246972474347608 18.089301274201485 18.586219901241883 19.356899082457183 19.350007560782668 19.765422407274325 19.671253358602844 18.54608486599053 17.036157961349307 16.746964858732905 18.177868616874438 19.234858369213192 19.327703987797882 19.504155215697843 18.928414001039787 17.798623534921415 17.46013992346845 17.644765952864056 18.067226737021937 17.480577816304102 16.633184479495938 16.96230105481152 17.873240423330316 19.38533037863514 20.30947510998309 19.781056617740536 18.193776735870287 16.39640599249238 15.819872636642561 16.829366846158933 18.40007392883738 19.385357713960808 19.601373224139078 19.15786685778282 18.704552883652806 18.95127852980208 19.116305232945344 17.982365266494526 17.49711317470528 17.359184668877695 17.967220693122048 18.703715292184885 18.639726656846683 17.811598795461354 17.400607086318427 17.02677898815184 17.970810055795543 19.073305100087147 18.09276786287163 16.76838993261361 17.268705614185755 17.39051353114525 18.088808350706937 19.144504831422182 19.051995168263726 19.262520706706084 19.52512218845821 19.376386580105315 18.51428006541483 16.938849146140782 16.463140960947445 17.35573065011533 18.793278696577865 18.232801379141424 16.491960010193733 15.432288308410307 16.43143561824743 18.29096196244073 19.2768566339374 18.445529640397112 17.514147470127114 17.986799882887137 18.06089776065344 17.134518327706015 17.312260209703478 18.17644887009979 17.449000127470946 16.18366255842905 15.48995230749311 14.933558840537044 15.07873853183492 15.09920432870769 16.316256172763243 18.44681609941506 19.649507749202044 18.654994427588004 17.654091356249417 18.127154974158344 18.842625448131216 18.963796907595913 18.70953697931331 17.935396823521167 17.0802332310842 17.034711131423165 16.725455447040815 16.45274089491556 16.493067948006427 17.151048964673542 17.94871975154392 18.984608070331145 19.367164597148903 18.90356996319919 19.009142644803596 18.572253338689993 18.113888884395088 18.942508069333982 20.514103726408564 20.863064223133833 19.908804778697114 18.843283197383258 18.168502009835457 17.909032263518057 18.235752287742148 19.238839475733016 19.93287796043653 20.092669171778535 19.370447257079864 18.21453760153453 16.707350869574892 16.39501658014587 16.991807816600616 16.763476700386764 16.878121342127468 17.324549903309446 18.026932309206813 18.994665390345386 19.725902332316227 19.278144204073946 18.12894167810971 17.699158223036225 18.257081206994588 18.757755924832534 18.56182840957161 17.964431120137874 17.678755007990354 17.077856252811724 15.875990586454357 15.784918306104366