# vtk DataFile Version 2.0
Ocean circulation t=0
ASCII
DATASET STRUCTURED_POINTS
DIMENSIONS 200 200 1
ORIGIN 0 0 0
SPACING 1 1 1
POINT_DATA 40000
SCALARS temperature double 1
LOOKUP_TABLE default
10.784849965266812
27.669192558574895
21.630677622242125
7.08143679845648
24.67392367368216
20.210258984300857
5.8183116511398305
20.038942622509218
15.593208207192294
24.124094518798724
23.45446598408479
18.973884825259777
27.229647452724034
6.899046457086767
10.830479986169145
10.674305411697253
19.996363119535335
20.853300032573713
5.006005704199852
10.035359940254573
29.171922208811004
28.763368808547373
19.050615171285465
24.776394792841494
10.88081512342471
10.319166218649269
27.96509870310672
25.779649295036727
27.661864377033737
5.146226094834933
17.268165660132624
24.06577455548073
12.679590373182632
17.606424265898227
12.47329847755478
29.400091241874318
16.922397836767793
6.63677304274801
29.20024058493209
23.419842553929435
12.669518501614327
13.081852565844052
13.783575017222093
10.202470512908803
23.959263576399966
10.615485095332748
24.25179185021168
8.584460867894325
12.862634377424477
15.098605183297332
27.822522333581144
21.84779721221895
21.981538950945854
24.57719296368238
7.938464339912356
26.91676063140019
29.525299985950834
12.031974559149138
25.6529311401743
6.113252799913561
18.408564966811923
12.77251065456667
14.562140017758953
12.587351361766864
27.863631949890635
19.473370504793156
12.663950164402925
25.50063878619342
7.014599885822054
26.482561489051758
16.555612328527868
19.998930402776963
11.869702307772645
20.8372336766866
8.824560045212099
14.695951512854183
21.14923285542599
19.41451370843623
16.75016453509824
29.60042853876253
11.144451365942565
26.33590673620619
16.42627932964622
25.755123970817486
26.647493073080565
25.105958752875438
12.00820141420013
22.204081096288125
12.37811714913498
28.141530609571568
25.871575920206734
14.151949445052313
7.7088539584215585
22.47219172268366
14.25080651543725
9.835094408523691
8.511517638941566
11.440260284636917
24.740886316263257
11.719299446868401
21.501606003818832
9.315500131515313
20.424925712390234
17.928055362917725
7.525194353467983
9.629523590476664
9.40378575208835
8.089980700211708
29.305312600124907
20.856655832415782
14.114439954532239
29.155520478572306
14.401743726522996
6.725784845445599
18.24591753153051
15.666049572904338
26.629332433611367
18.01450853606611
6.717981937476609
27.111708619341844
26.791722491925324
9.129313372271481
17.349543257164356
17.439710988334397
19.402410739062624
16.219200555158082
8.884423069587136
25.786628742388505
16.574821897089436
11.890266887948744
21.71167908057468
13.43816209311837
8.287989215962806
18.4553769314333
6.928582574925425
9.258460150046378
8.868340723862534
17.394227485481444
16.26359981868329
11.768289735301277
11.850666607375782
27.92426395841256
12.63323881784206
19.185366071154938
14.881588720380421
5.211283207122428
9.125034522427317
25.188737565179522
10.053012568977902
8.994319474332606
22.92851164032057
6.54188653943301
9.396640026400128
18.14026456842501
23.18970087044958
20.827639774392637
20.79506630211246
22.1550325153324
23.94391057828598
14.09665104628958
19.34034921055853
26.553486228504575
16.597237644484903
23.49499489600341
10.276291066383305
29.321348909654546
27.295668648059756
5.826084070831487
19.49614900103827
25.253420602176323
8.463941603508683
22.01372805419222
9.71694561183638
26.442445160566336
9.58559653920823
19.83812612980263
9.211720019459944
20.467441988315784
25.58910162449946
9.028618947577195
10.104540460656393
21.966483256401883
27.424239006325106
26.41305053765887
24.44003325410965
11.721498162391867
27.58240655412063
11.228412585258567
7.04496507539228
19.038663667546658
11.693585702583569
29.325011174840494
23.22846915000837
13.58573749469394
28.34374180069993
27.616679173639316
19.94268381004497
21.805481444118623
15.568231574302429
15.86867599268321
24.11334839942659
21.963026402391353
26.938409093341214
20.029340174417683
25.092618322022997
24.047211122506045
5.935488065016673
13.702916301811136
18.467053430114134
11.377360712024284
16.724354999505113
15.644511248735016
19.685992037558027
17.623058735210392
6.886746743918188
17.973910365144775
6.067254122173717
9.323198710455738
21.424696087221026
22.640252775306813
20.53953968099441
14.265699023374927
16.251281607958212
11.580335859033234
5.417670375213108
29.665079880169742
24.05242900277283
12.333677164384838
29.424531952577066
6.448284829105548
14.682843491104009
20.010276002464632
27.159567857277693
16.553361651689464
16.1354598614544
9.449782141121114
15.409793014108319
27.031018014318708
18.64343383826732
21.830916906645353
22.235775130973906
6.770942593504687
27.10411263585931
18.006590965727117
12.095743267447201
25.60572880912629
27.40714912920731
15.371553511723421
27.024993865826072
24.136906226346394
18.625211222567273
28.44662135479601
20.609812582257298
27.668796288358973
13.787754582532845
22.262134887212408
22.440736533481534
8.95417403925423
24.859677000391105
12.32575144626022
29.72770642513327
27.399352396551127
20.903644356289597
12.41346135324953
21.78920372318365
22.715559551867326
5.603911845436217
25.74194482153395
10.879292045940701
18.96409978388473
15.231324492342997
17.810410769567866
27.633725253111933
18.071700033603317
28.88785485625706
9.633385260493526
17.269788763228078
26.108036281930275
21.535916955370872
22.043910764897113
10.511164891481926
9.759977553329295
15.419628078344287
11.314414736276373
29.52059420816721
11.055270591071302
11.5436783157582
25.268225464960473
7.810639373269747
22.794740107768877
17.490371023798605
24.66788181058324
29.131794696479584
29.446917487932453
9.591637729973256
19.019443548437543
11.178517083771798
27.000960231975895
24.022705561253566
21.78069880938834
16.090636913497015
16.77957082412873
21.683919425210377
15.422513607874162
28.899876158419506
17.35934474717199
14.599038826454054
12.623571236906768
12.91211814005281
28.755013278434063
9.484455972840976
15.372958517246103
20.60114673888473
29.48699196594476
20.84434600021585
10.822640420350863
19.777154288179933
22.596185742322053
20.01411634433316
7.0371640758441885
15.629029737067203
24.68031767084405
16.03344253574261
29.832361995824975
23.498227658196804
11.213292271742704
12.890413253654577
8.964018817689436
11.451895238376359
9.737507140866276
19.074818338051017
11.844944524608145
20.73225201887879
16.117840383835212
13.351349631094934
24.93230143052088
14.815875039960753
14.507825139311473
29.269154153944832
25.160162350663953
27.485018458808014
8.158873535474738
6.243336872294174
19.2157757591745
5.974741676935239
27.861350422592402
20.768789738074837
28.068135281171863
18.8799832156197
23.897980914114495
18.060000874735024
29.148589982299708
17.541544171877817
10.13566116127357
26.568333182290562
5.819424386122772
26.257590144897215
6.244624249804099
15.147751190354509
8.177352113974798
18.432415377874392
22.87376815146701
21.616097736841144
15.844784056330267
29.13324342532904
27.754622270250653
13.486070572755086
19.51823514698942
7.485370879524668
6.127593716295625
27.186173424710674
11.374846700963193
14.540529473322254
28.770686076753396
23.56398855846543
23.009777934389692
13.266717057315562
13.942569156657706
28.915396998153668
10.07954955555627
13.03423027145292
20.832901941566043
21.909763854306963
9.229759296679353
12.596345512445115
18.402376226174944
11.408106962012717
10.792115200202396
5.583740399805444
23.90697805169408
6.310002217584655
26.456128349309587
9.42186430138688
29.48908896927035
22.49995017423768
28.52960222287699
28.080028592287256
22.528084714206756
22.18019897093815
24.918401354546738
8.64460074830673
28.766738451738345
21.247887856754463
8.986179603836934
28.430228628037238
16.68492621156328
14.200710491690348
20.1875181030294
19.32998490799317
25.289665397944294
17.365527553456563
26.351548027161414
12.068536959119545
5.216238616357978
23.58238635806664
19.08705556097427
26.671672074656435
18.11639364839018
24.205912788731883
23.01230563022938
28.481920305975574
11.72627686929641
24.619269146547673
10.553569290962141
22.14991205759543
12.420808807002441
26.744867539448954
29.441080409783517
5.991101234624589
12.625407199476564
18.69680780904328
16.314660892581742
29.399990566329727
29.903482950629225
27.540132434407656
14.160810705092134
13.89649570456566
13.275684867115155
22.23977247609977
26.548519376200165
18.48793741204667
25.626398816876502
17.05930633070215
10.42474237681691
16.831070928089012
29.70812950921952
28.455575421306925
20.23323590621407
22.40528888820456
13.083865513806574
26.785840996086076
22.861456145268804
15.267763170078927
16.33197586761395
12.492766573105044
21.20163520981781
18.128166633155395
14.264448851961014
23.490065729061943
20.64992400348121
19.70054243085837
10.394918624149186
17.344807368399948
11.616293097809084
8.131099069578774
13.897148570051527
6.570104694061417
11.776765999000322
25.318956931958272
23.192846068345663
5.481113553509655
12.764285686240713
12.059252090313432
8.325282368222403
26.90903551417452
26.401408967326883
17.557805719395184
8.069808441533855
16.512021124071552
21.227414196525107
23.985846626047838
8.62965296873621
22.8706246801603
22.938649088620572
16.01543720264133
15.565027041892858
23.082064118127285
23.218031793576507
20.93316487681493
10.718641624611598
6.990138542060943
20.270434979426526
28.044335746232935
29.72702384455971
25.507547336505493
26.348676402125395
7.73967853093533
25.015987143417902
13.104233725014328
13.689341513961482
26.24926733254321
12.085951835527135
19.375426493887947
25.185291341381955
29.660054900767182
26.642757787292073
20.1772557569979
16.96271656625862
27.590453875086038
8.105735572868632
12.498445445706388
24.20941236567128
29.932838935664964
21.396436897056002
21.02862486166698
7.198131364974443
26.988548010731897
9.952813845916861
11.332698448547792
16.532085130944935
24.02107926897757
19.726336585602333
12.627887097185244
11.97022475324554
5.1111999375927875
8.171676370275813
7.055479693797205
6.557734060041838
21.85766563971905
7.5779859263218
20.5728490607764
19.639317283986557
9.784197310045961
28.201362504489598
19.281937918493465
12.237816577997997
12.90168861016436
8.133550779585228
15.540895686787863
10.546386101681584
10.65877709703279
19.215383829240636
21.127164281242315
10.076488269658032
22.9880788023278
5.978467914124287
14.884429971057212
10.388099754413783
29.2504266480763
6.824360248751744
19.964598074770613
25.573196712705126
17.793564602266084
9.017784479974493
29.79612035498566
14.69378706961418
10.292028853338486
15.193796552079219
16.606212185380166
19.26505305278365
13.546089548082229
9.087532009655318
11.277939936256876
28.554095162925623
10.171933651932552
20.684962661837115
12.931497306452592
9.360532685967986
7.433119988736657
19.709785108000247
25.761863272017226
28.710317343102062
11.038454125673479
10.829323215129925
8.64763062274347
25.2874548155856
25.30848560374801
15.116522034442726
15.165133758478314
10.512139832079423
7.21711196761778
25.880827694937878
17.99117799393017
27.10526481121512
11.358776451293679
19.476867654387966
19.509190400253985
21.41494519306737
14.422443984588948
16.430888782215604
16.430248121226604
19.358626438566677
14.129894342862704
29.608928433191778
14.561679543881457
20.936384682263895
17.06643791549929
8.665510404097327
9.753636500056935
9.550097583155804
6.426318716379029
27.99636125485115
23.10946832991707
26.719940804362604
24.762015214079433
27.879583238139624
21.48191365900065
15.523394785328149
21.702573049751706
26.15226529986607
22.67335032710789
27.7959857229489
8.35933137135434
22.79928640772381
19.19190405635717
29.599371028996643
23.88485311754432
26.79708618581675
12.024995054599128
23.899641024114242
10.430454546180949
8.590648932263928
20.41456693449183
18.749793858981413
24.219065288450864
5.925034166180049
10.576629951849155
6.0402015599253716
24.82571668653629
15.358016203562945
5.320771257339877
15.61535855985116
16.602361028273926
17.55861370061664
5.240386464202411
23.35337783214083
24.21242173850977
13.670299844107895
19.42210681947062
25.429061121173316
22.61941072759214
25.204900034433475
17.273413620327624
19.762641500440814
25.361082596893983
12.115922319215636
11.716435855578906
22.814494676413624
22.73216197922829
21.22461148387918
29.689104572331264
14.628928517382098
5.973095872552493
13.194443420306413
18.117502351510467
18.219860997825158
7.7432196821545105
21.565119599025753
9.328494227667465
17.54516849857992
15.54055183161752
10.342859289540392
25.410658605513746
16.173989364582326
7.6620545922077214
11.484908372282364
25.245957613624128
11.46203134671073
5.610481792662338
10.017557080250922
22.772017947425585
6.115953447531023
25.500110669336983
24.383948262978908
14.210079734527982
6.2033607039373315
24.662430081511943
17.250568300737715
21.47186272719493
24.810606276790153
21.966063481523214
25.48738194871313
19.749439834306692
23.29703595929839
7.948176342828981
16.509050333243813
25.188125487014347
25.432351692598296
8.982887288451481
12.461860128728116
19.836697685636988
21.7594943188138
9.925188217916935
21.16759138075081
26.55370225684041
15.574224344396066
13.687121267488756
27.759013820309203
7.6709671881213755
13.473967605124653
15.59090868472817
28.698509916538384
10.68527000573027
18.46304410881748
19.728580038336027
29.319266730860235
28.490782105319404
9.09728383078132
18.23678545192806
16.716194229996695
9.573435936698406
5.922502651052939
27.254808699701233
18.61291012419246
14.78863934530275
15.752156891519258
9.943874230286932
7.365017892744895
5.641376316962819
28.205951238352966
20.167374886887465
25.62910923428257
17.976093559185767
14.71912612568335
9.817539542445187
25.481119469743184
7.101545671112132
11.134586462201714
24.155149738919757
5.749583494030085
25.971683297791866
5.553175810406853
6.6433948819638555
15.340143307749464
24.299312897729408
14.06873410418444
10.883970972013291
13.14847111560019
16.94609157213889
28.182988530299305
14.97699254563505
11.494453385641467
23.228566946119514
27.97251389860949
17.77030289002559
27.182009843250306
5.542183838413887
23.865141715992493
8.133129512679192
22.88044474315066
15.617819054809885
13.262538688995633
8.648860936341483
20.791333816568702
27.514425262752628
13.258329104457212
25.55450040698716
5.873516919946987
24.237353287979804
8.68997139221521
6.308055264387886
14.781614634029909
12.563583768965229
23.646280553367927
21.165308432116277
24.117629165496275
22.344534882931757
21.315813184305988
9.74800263510911
13.11680375356992
24.213360725995695
29.831741726385836
29.089196172582362
19.651010740658723
28.17575872014461
21.378969139404067
24.29086562748247
6.75694737454527
11.260723696593729
12.680829720264708
6.534083206892542
20.394637132165926
13.255749321213674
28.284342072092574
17.028590792634464
6.53511857004312
12.012346283166343
5.98200611836794
28.000899573651207
25.048289675653127
15.832197119332315
9.481639606886917
11.612236415504732
21.97787054390504
29.838143577503548
10.079558502464549
5.986635014938663
28.398228598168934
18.74366416779639
7.711324788841274
12.237540801909883
27.249772774656204
27.178434473199413
12.800314706973815
17.611200484192018
13.643040404429428
23.039846372629377
5.350754608372831
7.579451439220746
9.199772983531524
27.027064650140808
13.056465954404036
8.575979020163643
17.49261996060475
21.960234311848453
12.854035000952608
23.476083142543356
16.45749353919883
20.13988545896416
19.492040177011873
10.243528804045061
7.74962362284463
18.983239583245783
26.502222407637976
11.009052598057643
28.05123924680276
19.639596221764126
24.7015151826306
20.833971504140454
24.447800438018568
9.521630557239595
24.116578885919797
19.979287119962127
13.168241710098522
18.20102335253734
26.39114172504313
22.31111071030001
29.272668943016072
26.88502196858839
17.362093711430106
27.58062434051465
28.56233238670029
6.207093697073233
11.289703806536622
10.575454591382778
19.51245755977666
22.55435367753649
20.264074180471418
22.296602928061215
20.209285405779802
9.604927738442097
7.342715566838111
22.924486305478933
17.221713756012313
29.212845892420106
22.473352182139042
26.868140611562893
29.010639184394748
18.51523253634409
17.46417135016118
7.535722372196283
25.129525154153086
26.351151784301976
20.04824567184181
11.441004690994916
24.841043328386853
11.194802301288743
23.648995963394047
9.508472056585322
14.855234398553897
26.413678601641102
5.816607131784833
12.997792291239648
19.58081357179888
21.846862779063088
21.813671727537265
9.877211404821658
8.313764853581926
22.7516603131177
27.91343111822897
12.08136329300996
5.449042912154152
6.004557316011203
11.611034827727524
19.263375917010123
5.206087705419924
16.10568509974715
24.060887961669742
15.910858888142757
6.324897838998357
16.58879858226814
15.146893297873572
9.24227243269544
5.083096525288279
25.238622963415352
13.163609047825627
20.42889468119129
29.49499249680138
15.630944020343113
20.323529405376203
26.72994696586505
28.987732032672586
25.98342731804021
19.59786539474203
23.706020349421728
19.665652471114946
27.09555062820909
11.845078538542396
14.997331044507757
29.544890894228736
16.17128888321212
11.678200132654261
12.648613172442667
8.289973998009014
15.438164289972518
29.509531459468015
15.013033800338523
8.972059069210424
15.924775817130177
21.740840496192785
15.853627865193912
16.34334045480191
26.348721677855924
24.959520134812937
21.016068064812156
16.968014017912466
23.06780660482805
24.479881427383546
24.404585285370647
5.5312292349268946
6.097802687258093
9.143030281559707
8.73672876528524
24.950236798220846
9.868539139026904
20.600381448636398
28.659590557548604
29.883005463722288
27.977941673722924
19.6366738893513
28.095222639985643
28.18201377831543
8.494047604287198
7.1823220006778055
29.03794361908612
6.349988724229756
8.91370588072271
14.062040506115416
26.874826055805276
7.65776964341029
11.579045217422955
6.790517008316078
20.83588434650648
18.148074639663662
6.771957601987298
25.09605822145681
9.655284388559465
9.516354176083684
28.36347644262677
24.500075125139354
25.4004216821329
21.86904374335949
7.0151281537322205
17.32679819404546
23.83685086232445
18.547523683925682
24.988317234940357
20.144248053752968
15.365675908070912
16.048415218978278
27.950057861084872
11.573204652401138
9.47627125080782
29.289118363545747
15.5957857311443
20.50802780883987
9.58966468212595
7.549450801814832
24.212368799178765
28.047510879861687
7.665753371411691
14.096678860263587
11.312809931376195
25.392850161849143
16.06760962809527
21.300113203889918
18.264024787261192
7.386685845915304
27.50772360338804
22.158983330025823
8.44630223135928
5.97278425538343
10.528988897494465
14.671380197852894
7.096974942533617
23.036854518164418
17.435496918240357
22.887579026235247
19.887528683988972
5.998755701858603
24.980612855839528
17.13831819013396
28.0041870311875
29.68990300464068
16.90182317284676
15.91108158542647
26.021629210341167
5.064971450726093
6.837734265244128
12.723688659065417
8.897030145074362
29.216783167504865
29.24151127848871
17.0557627021036
28.306198912739497
26.72653803365775
15.071453125790153
6.032803229406706
29.70547018809366
11.223637656501236
11.367756732964772
20.66127926497601
27.785798006545466
11.91985914044006
7.062082343879237
9.326974906055277
5.233443751315033
26.791023689468982
16.901596507589485
28.89894408240842
21.376356604179538
26.76438689723904
21.823769627143573
23.384405232221432
27.843930127244093
13.622972715457855
20.732668892720284
12.870264337915085
25.08510367913121
13.745978976959744
18.344934863038304
5.19333454651303
7.20867053755792
24.654052819493813
20.802829742984642
9.893796712912764
10.236299044916601
8.228499419469246
22.99831590653811
29.324841911543977
26.27557600182797
5.128272380342634
27.929097441272305
6.0111605581248435
28.66884042042589
21.282759597523235
5.678898115033588
6.059754025755794
21.756067182325904
24.247507187095717
13.858991995731405
22.155421966324035
8.707207851511178
6.629458060526629
19.170634572393926
17.180916780430987
10.913186887243754
13.438671082944177
23.795126556520305
13.33445929158727
9.41669844578874
21.89610543267939
15.90561700713475
5.575938627869327
20.80997710568351
8.677039851768448
16.15306810126345
10.64533622948408
15.713452303963237
8.712832923257578
15.29470297433016
21.346930371587934
19.31448413326745
16.20218588700427
18.498763301286274
23.52551406471204
15.98425318568037
19.134555283469204
27.58055011450044
18.10519559250075
22.120830404200294
12.498679309199836
20.675098727121245
18.611673236544895
25.656509292248764
6.259286287670058
21.630688458722144
24.195344273029946
11.568174106804666
8.29780605746991
10.683429870861703
10.081148190811538
6.929935113224909
18.216383206590212
14.433360997054086
5.434272986845996
25.272976431014953
23.87805821763647
7.79304037129342
21.248054476752554
18.59476621243705
29.81962620525157
24.31555613611432
14.983603356803252
29.52307424842798
23.69244552775784
13.532688189090672
23.95988276207124
10.143449550696358
26.16241593438982
15.945681452467024
9.098453615230829
6.679153179108098
19.12881249479014
26.345996018532052
12.20986615564021
18.318451418137037
20.32609844796005
27.686817903173875
16.214434040127088
7.2611574832394234
27.826417934918823
27.799062791119265
9.514847485980454
6.694672492467166
28.29043151160814
7.589736581284741
16.45678752412072
11.657820102402473
9.10395519366139
10.388652022636055
18.28261390164952
5.730709159469892
21.917559685935327
29.377791708955694
26.527903750719798
26.23109702559036
6.013984281389757
19.00731057571491
5.501267431146441
14.836160751410041
12.668245785468098
27.794931282336975
29.21843517597128
6.3589496880519
27.985812146163774
10.745277972305788
24.31205980756526
20.868727623406723
22.741337067774772
15.071541068508271
25.54822505705014
25.359713869755627
12.046359365538907
25.442450019509437
10.708951683183443
16.831929400796742
17.93892718983968
17.93628251591938
23.905376322247964
10.816899741776819
17.9742073780468
5.4793871680469515
8.528386183641619
29.3423098565015
14.271722977769628
21.50527924897098
16.69728676744384
7.99905104071751
27.01746452705919
11.43083703673167
27.791496957398554
19.895225075589586
12.704096354443315
20.179148490676113
16.296665404499663
6.078938315898339
17.040114668732308
12.447858249029043
12.677172971925579
14.74943792659907
15.935910108842073
12.676330484822785
16.87963428137937
11.737423723534805
18.38981025637243
9.05664975881053
13.037104780873358
8.654502336852712
8.61645889718921
16.447597766756537
25.63230739061633
19.209552460315795
21.584679624985487
22.72487267684005
23.023542900490185
26.283184837046953
11.676336109672537
7.980583609594639
8.235669846514106
29.689305743879274
19.422505133346434
6.790698259247012
29.32494654942829
14.509780371088661
10.161959548781493
13.506003698355386
15.971959577027423
10.657330994023031
9.816913124744495
24.3204749946737
7.902826929062449
14.27861452864917
25.671084201214622
15.634192821393688
25.97880740611409
29.5957032362309
22.12173588678844
26.215800827982854
18.395792365623265
17.89703959120631
10.72614945087236
29.753420843576084
12.569193287822268
16.855548734029405
18.985525916508827
16.017727511225974
22.668994044349777
9.488112827534334
6.525373544271807
6.109526284983517
6.694971647304488
14.261865070964404
12.4032976994854
23.3761549571808
13.994967164254685
28.410461436451826
6.8049419596210035
17.06344476045652
23.22678052095668
15.092289335446564
18.99457523697066
17.142025170677407
18.512489291162346
14.203533173070142
29.769818288731756
17.609135509712914
24.67132591828542
12.056861241814765
24.49158254527909
13.97667691407363
14.567692587362146
29.07049857004778
12.653446443642206
20.76812795768975
21.577120568027638
25.206807164652858
20.274705769101352
27.880598594291314
29.307207608148346
27.923595065554654
23.876370010620445
9.037434846451315
15.097863521979544
10.786506462366525
13.593295339448446
17.475351579167047
12.209074547941174
8.3024082991847
14.716191158010101
16.2654406351096
26.66322072793669
6.234529146111004
20.19213428767347
29.23385083858544
27.957823046257058
13.78740968399553
13.31634114243176
12.279547416511534
25.775289382865914
18.029124504137577
28.58117182817748
19.757423009406835
9.73671933770304
24.599924270335627
21.907295184089467
10.369726705897193
16.827828621111415
27.175513499572286
27.807102401996072
19.142028625692173
9.30218196495121
21.94288386584005
10.188058239966463
21.13761116040242
29.387148250698328
15.611257391332437
13.417494154480329
29.760208006225568
20.92815262725742
9.867100060456249
18.836030055255442
17.591525461009578
19.192972606175573
8.607124927620013
10.055672002002808
27.601125260667853
10.65830896578261
21.249855403205924
14.576267190929311
6.35412265171915
29.42606191962627
10.89869029961961
7.819725243008148
28.80205836664209
9.347662466787124
6.166314501488558
22.1340849529124
10.296477412464668
20.7789004450469
16.365006146421948
15.282400999729646
5.850181856559051
20.705906342957032
5.648221396406878
21.762477755346477
15.411026634993654
13.56798875110036
8.001410805714933
5.831755215510799
5.131256681105199
22.015960457023255
27.428556964988484
21.049043876187973
5.505032824971871
19.05794527300574
16.627728272850547
10.52761415851515
15.060417068849443
14.245991156856972
25.069034407962008
15.529654748890993
24.399898420419593
10.494973457926665
14.683465596691565
7.066069634594905
29.328443311860273
5.853170250585303
25.21231265140954
17.455600169230824
21.87639392091001
10.927097822216382
21.36649063642191
14.402281124803876
9.54462625873282
16.59098494109154
22.70238850115396
27.10026652098572
11.657894069832853
16.18796471502451
18.41225892699328
6.069265692426635
28.9004796647253
24.541420203884215
10.137977787080455
26.0708639766598
21.433715811766906
26.949490940303924
14.55790825298714
17.198335558354273
13.250423567892279
28.750667566006683
24.630985808327043
23.811410701665146
8.438633833797155
26.881565509145652
19.351108233163863
27.505382444237227
8.668013554994564
20.64070867644486
24.448974553763758
6.28172769478154
5.759358955947986
27.308690954490785
20.257637885385467
26.07292367833254
14.882835318763398
16.49855062889076
14.16525942462185
19.836019873319458
29.557185462614726
24.44319487774405
28.094184770420533
13.172906720428195
15.448445299809297
29.704650569193003
19.18868654949736
17.54252697944453
7.326852703103532
6.505794797003437
10.148035436464866
26.503151648908823
29.13901727382515
8.100573352948647
21.451192372034964
20.188330399757746
6.050270334903713
15.048941276590224
29.663090293983
21.020161314313235
7.900087902366275
9.09264417272325
17.328836608993022
9.710177644164542
8.318829609189791
10.49738871215552
23.838464921419824
19.499334755690036
12.898487478683222
9.71127596726577
10.929593690962609
15.875759096366622
5.774206972338101
16.253868846151256
13.320966148385759
21.249091305018535
11.354230731622673
23.178376784265367
20.882423020640545
26.662326918144608
8.807202983453536
29.936649069101755
27.9756109276369
8.690661965099654
14.0821923121317
19.08203582527614
27.766675915607028
10.651584653140315
7.982565486477975
9.175647017335713
26.61821076712957
20.834382572089787
27.247877699833843
28.186966866392556
21.95304942020378
8.837893046372315
25.266782255937592
11.191287702944638
9.605055619266876
8.610703841718106
20.280265866908728
14.952653600241462
7.1554258086400795
29.76454926838131
14.132893116631422
8.897394205519777
26.936073392796587
13.103261325222826
13.539636875961824
12.02916661305397
18.80781049773391
25.753754395664906
28.821828943401
20.819237262921916
7.209212831041526
8.666661476319035
20.58807657551052
25.48789974882737
16.21008427247005
19.951884462063973
16.55406986147903
21.905110766107736
16.670000912786637
5.74126336114966
23.903124303871852
24.029802865072003
27.619258675643668
19.08530682401341
21.984578506502647
24.010371184427978
28.04819600208205
26.275647047397285
13.235616571472779
22.562714082136385
23.096008277927485
16.506413568617443
24.91177259136644
23.67823043111929
11.26915939250483
18.871291157802055
26.79361601530733
12.186165217296342
29.88982599173766
10.954222858848816
6.884921170334381
24.569392797499276
12.122002652420086
22.86687679092833
20.97948705611924
17.11550411016006
27.536640367599887
10.550254391874514
25.104635916095532
11.02002512583196
26.741385796164714
26.332141423866272
13.319460164531575
22.75383802130147
15.514678434802732
21.84755439694264
26.093165169051854
17.098779297716632
17.35433254305528
13.262558076739627
26.868611392527793
20.38609987977708
27.857656253957455
10.808625539610135
11.844863192051706
20.730772297211907
15.977296739276547
20.511833103412584
27.399627839860884
18.525202912153
7.13111255597728
12.049200376292728
29.316304486524007
22.21235458656049
27.389063429337337
25.420879017675404
11.028466622549885
27.057477767679174
5.412080219216026
17.078035946337103
22.41608877556135
5.689212258794039
24.539194789756742
20.792622197288892
24.0013688389205
8.140977125158155
9.158382803016424
18.91613741783555
10.774156725200541
8.543862508674122
7.4329090675806215
14.9026696980351
8.539955204717188
10.545269642673803
19.423105474310557
6.4687516548647475
8.626057587427567
10.850414049521474
23.83392364538395
11.549756890026963
7.141337076798653
17.64112767103806
10.077181520157833
28.650818619166017
12.518298092969522
29.96411705120136
15.83213298634825
15.979024387590771
28.237241802697916
7.42018259605849
13.400147363685335
18.77347552793154
23.92730843335001
28.65354394444077
21.1400806929097
9.17791448932287
22.264394685730135
12.781405779264851
29.934664451113946
7.976954579817207
22.971323710046168
26.27416108788568
25.124360605040547
29.26228343523335
9.673307448598415
5.690551756524838
28.878714948996365
8.375151439461725
11.89733167860165
10.014522199136444
14.224032604487428
22.514666915794947
6.403177224789118
13.630570374142337
29.644274949174978
28.829586202674026
22.32716992761706
5.313942777408885
16.97586645235156
29.735539403181452
20.663534741823057
26.934873083347785
23.496965070289203
16.61125894686807
8.787799283580398
20.75384217316237
21.190823305263063