# vtk DataFile Version 2.0
Really cool data
ASCII
DATASET STRUCTURED_POINTS
DIMENSIONS 200 200 1
ORIGIN 0 0 0
SPACING 1 1 1
POINT_DATA 40000
SCALARS temperature double 1
LOOKUP_TABLE default
19.51915268986166 17.609316445162015 15.649013467347302 15.565663667539347 16.08465956292384 15.727585396234053 15.301526503170956 14.004520379302141 13.882381230691406 15.94042313838686 16.400380493389132 16.498452293818776 15.639516114952789 17.367609243176027 19.899759648956593 19.257160751414133 17.131392556255193 15.073645515817876 15.001549100476424 16.50600773457621 17.387673450342103 16.097099573260085 14.814931109197596 15.013200408595251 15.128023810491777 16.347469349164975 17.906157549382957 17.32649647823988 14.929364909070115 14.118536295881619 16.082302910151462 18.849683749756725 19.328284169359797 17.14232615039192 14.677495121571281 14.181740926842071 13.970286677092869 14.083429336942 14.151081812916114 14.199523288450376 16.16532665329145 17.981343318620713 19.10425911214436 19.387080575705426 20.24215337703928 20.551256295729253 19.21630404747522 17.591097680945524 16.424505130828155 15.522800349674908 14.481235759084461 13.929267450851855 13.188459629296503 13.739844771192184 15.618035966798814 16.40534570386372 15.821698315954897 15.650737869883999 15.886393268389519 15.519960012199581 15.952188696548827 16.528763696102985 17.059406588257932 16.009222834606902 15.184653185001457 15.372454804391388 15.641171051862898 17.93908348259942 17.880773357201292 17.383994050439192 15.966607970650005 15.867527934826358 15.658143251498615 16.478450481377568 18.80309621948582 19.190716441670464 18.598383409787324 17.43048937902316 16.937979985645974 16.897461806450746 16.98724119402812 19.47107345146847 20.472538406869273 20.09064320912706 20.11696616281852 21.13005545537798 21.35648450097902 21.074909056796912 20.80288767613524 21.63947326266946 20.808321730237076 20.36953793390569 20.004698998443402 19.203877099354532 17.707919910777917 15.178901970496968 14.817390022748409 16.206464401485007 15.971398396886286 16.95996363802757 17.97967419768608 18.261418362254062 20.04435327368395 20.343110431577777 19.266522653325378 18.443155169589755 18.45785330521124 19.975182618349454 20.584422554625046 18.655431501367815 16.176281684683516 14.356535989402461 14.632609492219235 15.865855815688912 15.326473609549183 15.161992474235719 15.995557756021887 16.395778806441154 16.776934586647887 17.23796372698034 18.62229923187536 19.126387711537447 18.852124556746073 19.79300180083184 19.83797982917363 18.036483752710424 17.58788777325382 16.843695637774264 17.04745393795406 17.34479348163784 15.681915331066978 16.02122671594791 17.598665586609595 19.34102078690948 19.649520314839926 18.71964685479954 17.500372071222188 17.362470917184726 15.622347060575194 15.034751356351434 16.37515248118381 16.334288296623885 16.869770043583312 16.685422716266807 16.486285845591084 15.883030911115151 16.179163857994876 15.374324565999308 15.850278323952645 17.87536001280214 20.40784115101042 21.541712544754397 20.721766587093228 20.063798871514656 18.962925240257896 18.1843962815979 18.162061051166486 16.933783934330936 15.439186421609325 14.575040223619508 14.647049636726445 16.48000289319123 17.376378907237868 17.421229621779517 17.079092268758718 17.88609892050747 18.33170509384746 18.95095907305863 19.56798764228431 18.163608218442736 16.45665246117359 15.0955527046431 14.668889965860176 16.121651988543093 17.61612291326016 18.764349483800356 19.626358201922134 17.916489174713814 16.57942225917536 17.091755403074053 18.2591840512754 17.80541598609028 16.478270397214235 15.71548857124067 14.532567254168116 13.898811786926489 13.622836437417355 14.023622784077958 14.656983077556275 15.502688169340267 17.2900753014494 18.801688152102844 18.873938439106208 20.010348612437646 20.802910540044188 20.003776872767148 20.931570445328013 20.70899264971724 19.783885995270342 19.85124987744794 19.694395502517967 17.43447095028842 16.229412911723255 15.031970667905178 15.357918935527946 15.254709788515322 13.482836261343882 12.571756975182664 13.685439838688113 15.94023726906271 15.841069191450304 14.903575711347552 14.530130755529871 16.961903091600092 20.301816999731653 19.703599877843647 17.489373792049378 16.014216095708026 16.732980627143203 18.98747001376846 18.923274432858403 16.834991528740762 16.17867379692335 17.013319063775768 16.954736876171232 18.46397518164625 20.16847246929326 19.142830856719918 15.67253563793027 14.486976991847653 16.429211282913787 18.756959671073414 19.052313720227588 16.920238431055182 14.24233676920986 13.924880956279535 14.26079392433697 15.215304211408515 15.431917204345535 15.603476118286707 17.195715224368147 18.83979494984778 20.166776340600926 20.089045165285757 19.667527594556724 19.636178787455453 18.59293823499898 16.899132523609943 15.505581985139246 14.311503519435009 13.401043571310673 12.882109155573035 12.963282187069032 14.387358595157785 15.94115954171265 16.199995899436512 16.751001575871452 17.860167700713266 18.402311461601226 16.65753425212536 15.720027236460858 16.37141234606947 16.761100511698924 15.938856935367587 15.269555935094242 15.83724433868805 16.526962291214396 17.28507679123829 16.340443935828898 16.169903126645252 16.142571116942964 16.964984435143876 15.71591561451028 16.012452183610463 18.802305528538934 19.160025966610977 18.305955090264646 17.850578280216737 17.920114503671787 16.47072361484359 15.80920237971222 18.518941673453877 20.441446455592857 21.273165542267876 21.711820625521902 21.705988560163068 20.612244500930927 19.584104337355505 19.2119433373083 20.19763110176424 20.38357315279131 21.03085915092596 20.3741966487155 18.514977998620164 17.018932588940444 14.853290707646385 15.064773560257404 15.96360533119792 15.117990333820277 15.130692591886882 15.659222505274496 16.614204457870915 18.734913386864708 19.508365517115255 19.018799169712484 18.76592699736671 18.833794900534826 19.428239322620886 19.815566986272373 17.695078927290727 14.804076108746925 13.038932491504868 14.17845173906952 16.940655706064053 17.140404699887913 16.42928773456239 17.169499817464434 17.015452678304218 16.168088177720723 15.98890034722636 16.84705011983435 17.389304356975575 17.373618872195312 18.975031614759498 19.721637596946923 17.649156366786166 16.999780918111863 16.906535478899983 17.233906722908188 17.10610386584522 15.910371458492282 16.717312113545155 18.31702638156276 20.388797381272962 20.6398591636985 18.350945914191698 16.471899607933267 15.971975316045443 14.623761090991364 14.960471247983971 15.863575282806192 15.557270223452084 15.364914593382808 14.962941032446205 15.314608618130267 15.09405323200342 16.364215875991384 16.385328867334806 15.521153253506535 16.61791899806205 18.99111847046909 20.10802241047866 19.528704931446196 18.838631311787918 16.751986990440184 16.406613528552697 17.092932878755118 15.983219847737182 14.532438505352955 14.090026613645298 14.277055037932922 16.35640089158326 17.03897645661646 16.68285253452092 16.293603579189597 16.66178659719406 16.69141791224294 17.664736984669755 19.484449055296388 18.974349146448986 18.094080481215258 16.219846709591295 13.863994320051528 14.56203180824079 16.04035821500817 16.9140349323182 18.22978400388595 17.69610174103724 17.094645875925977 16.72639137702694 17.825674791772368 17.314378056971357 15.232588581443114 15.231233198168672 15.322230719332739 14.753258644473723 14.041605683648244 14.409421190027292 16.228927405311588 16.714745132016283 17.018032333540766 17.41440006784303 17.866046107938775 19.12472647790902 19.927432559369255 18.924547114270165 19.464693149375893 19.464028697125638 19.315420116876002 20.123786143743658 19.39284684061795 17.704051511891997 16.701870721123292 15.272135459180921 16.36865034284332 16.732401143208097 14.076424093732776 12.907306204926156 13.470416604402889 15.200932621755582 15.780249152309285 15.012970310294218 15.294884681840195 17.750336606598154 20.565609812788555 19.61301221921325 18.22272392110744 17.582541246737144 17.578862795960195 19.408089449979144 18.637405828648397 16.92930132748992 17.098236710605914 18.785772726471624 19.27952980078501 20.27885742867487 21.04799153141264 19.599326498859355 16.624618865155423 16.29431610569899 18.226524023707864 19.431720593562023 18.714907425185178 17.210002157177456 15.828618423437764 16.292488270393207 16.241578038599112 17.003441002772917 17.678635803919228 17.809292213839342 18.34636514292898 19.43930132226979 20.057822864904335 20.039613828497327 19.88254579687755 19.47232020468561 18.159898438121928 16.04643285076994 14.40512803455001 13.792865170692782 13.400276984707551 13.103860456563288 13.977729047769987 16.178308586274134 17.15031547120009 17.470796216535923 19.026594993538442 20.58192960619354 21.050246708681385 18.962680037116 16.770105628736825 16.12049011594688 16.286204717358604 16.374686274857513 16.57010430292041 17.465401047007095 17.83843495723784 17.29423999162531 16.958089510453433 18.040415151116484 18.646490373782626 18.797916600994135 16.389956132509532 15.479201761699626 17.064524321815163 17.14101830482946 17.100487174844687 18.002561633019244 18.477496219895425 17.057522748303033 16.301814109238666 18.237965378469482 20.071601853240967 21.763270972252705 22.504514976960113 21.369970526603627 18.799995788772666 17.051283650305376 16.37334564756073 17.661166683696678 19.578467811741707 21.156122788548377 20.197330187866644 17.49144587454075 15.750697369808396 14.481788464479946 15.960824694986155 17.50809227210312 17.18443297531691 16.455113554107086 16.358088215814202 17.377212426610516 19.4926610605904 19.487652770032113 17.684901742112107 17.667970486376756 18.11616862224451 17.69163147211228 17.969600191323224 17.551188285076297 16.228192194325207 14.891505361878453 15.414620073120703 17.528792284451544 18.157950439801457 17.673193697822 18.48369427196951 18.21020425467318 16.937122877899114 16.50825696232866 17.531951211109813 18.82784732000342 19.038990117934734 20.548317026623163 21.449229745920682 19.41347640231846 17.46380388305543 16.799124901263912 17.317815978565385 17.567478271267415 17.153202184643874 18.11789387969917 19.504997859654157 21.62466368313092 21.775558504003925 19.487614149028524 17.384593022283628 16.198654455840583 15.056569222326534 15.02647610612812 15.779982976391953 15.099822509357857 14.596094187098156 14.91212243478939 16.12070316797046 15.47504973120276 16.372347563104217 17.505109641372204 15.789076856180726 15.681829239425497 18.130820163338317 18.964721476694052 17.49479938525354 17.407605234298597 16.988709354496546 18.55411253204203 20.224810546930726 19.191981135159995 17.06150293569559 15.83362009468267 15.667583069472693 16.199004306503916 15.347046902493682 14.70239998232732 15.274637201611682 16.748815501986662 16.997874364801998 17.06152532246867 18.142374357504785 18.43313552669748 18.96276710684139 17.401820213122708 14.309178991665535 14.356438681025528 15.73528015937491 15.889320772388903 16.09351166325114 16.20658701247064 16.996854654621167 16.165432386049176 16.248558866170246 16.21972806399196 14.227805693834098 14.500151857799528 15.868758748288418 16.83391829811795 16.546699640070845 16.405806216128695 18.047908397626912 18.09166803197646 17.20745202292951 17.382629865542988 18.388808988639493 20.00929445826922 20.17816871422866 18.47239797499108 17.920468844901055 18.31867209206437 18.755092751566437 19.675028023806572 17.439729681630265 17.890939940342047 17.242511380543768 15.68865124759877 17.344752647331816 18.47273632270109 16.64013823248455 15.453759671028573 14.350234612381472 14.634764901920931 15.062203100635005 15.065196018580455 15.604293252329056 17.32239994575303 20.333835686398764 20.518986527514702 19.891589579684005 18.50067653106719 17.240390946898206 18.106502337772454 17.188127485816665 17.300492387440045 18.2300812108953 19.130067461748745 19.16775949115778 19.810295746677305 20.265285097050306 18.64351641073774 16.985361799411674 17.260622852945687 18.30901411766233 18.833923802305428 18.61513441209901 18.09377446448313 17.38846192114519 17.438641469251113 16.78517328401605 17.011103632730137 17.744633501108595 17.616571585130696 18.32477147618503 18.499024985710854 18.303755643631238 18.65766097643791 19.84190512325663 19.250436686175128 17.737562641999503 15.63074154379619 15.037899960287794 15.735639886047819 15.444973425562035 14.65503405508355 15.862050165178518 18.313425152217743 19.179673321402472 18.86551141616429 20.439259184668074 21.41840531458079 22.01182507994867 21.353083039150583 19.228683935399243 17.31956077921642 16.88812953451505 16.92212481253895 16.7261780099463 17.188358724597098 17.85725840854455 16.796168848630035 16.53793001830023 18.40448938567265 19.983291988751727 20.336234493730444 18.034416661662526 15.810602547464793 14.549073500124981 13.99298116769946 15.046465648325755 16.87226564449867 17.66605064732294 17.04374052541411 17.464601576010082 19.795277680036673 21.008167708436748 22.07765867352085 22.577187743962792 20.840316160901818 18.160014567560097 17.154583197932872 16.252559960359488 17.37925915706432 19.110095082719614 19.404548788786688 18.225041153290373 16.732894901291772 15.544026220645488 14.817495582073326 16.255620683091674 18.655228552537906 19.349743798254117 18.38853282965586 17.85088531223898 17.967013179702025 19.040686334099078 18.419275525515985 16.092211316478 15.363856133846848 16.00675603311742 15.918519158637285 15.9891249156291 17.303264497556086 18.123237634783965 17.451647967469626 17.09603761657552 18.93057210205831 19.671423764535877 18.9011631300062 19.021472393902812 19.07814439557149 18.502816227519567 18.710397698759618 20.25107817333048 21.351990443629916 22.050632602576627 22.93057948996033 22.833097285496248 20.426082532180068 17.918799140369387 17.588167410567692 17.937406181326367 18.05240642255708 17.630361579082884 18.322211186837524 19.490144632242288 21.01437718299352 20.600047476706504 18.29423351227891 16.67301250901144 16.344766630193273 16.36554265934874 15.896626565648347 16.576990070528904 16.354465758317613 15.995560411698364 16.974781622201583 17.90869566890203 16.42054847697492 16.468517347919505 17.976169330773594 16.58125550516355 15.801200702793007 17.270718631264746 17.935390714572907 16.443876041988787 16.558916947369962 17.87889637395976 20.05483079401347 21.793046119426236 21.300078442502087 19.94431110862422 18.387725608664944 17.751406640072926 16.43843150293125 15.161056644098956 14.500321822180009 14.536152134672466 15.838345578398803 16.38319522187862 15.975426090761243 16.20375409092802 17.430799627021052 18.765695796306982 17.751871077757627 15.437998697365257 15.821199609899624 17.133212018510022 16.130914843804284 15.275887804485627 15.75310962345026 17.62834413251661 17.736641398701043 17.509045626445275 17.240480762318104 15.438493143882022 15.506693198349389 16.474214732097654 17.64500092431289 17.290365561182803 17.006950125493763 17.841184416944493 17.284913204162688 16.949903276939285 18.44686745887175 20.29312829670648 20.95249403075288 19.66445457529848 16.81619525704906 16.407263049291213 17.013557185266333 16.459350707333904 16.639862586148933 14.269138890768323 15.684649615710534 16.28294879127143 15.902659781204768 18.170537440714764 19.827038957072624 18.86323477409044 17.405971762275087 15.515106363387806 15.743859052533821 16.605868415071658 17.370722010277774 17.064033387777446 17.114428674331812 19.927998258605918 21.31587816536708 21.435054040232885 19.73734233547699 17.136235152810695 16.60583737279156 15.618328903775842 17.093305382004687 19.887933208918664 20.914406569714878 20.334121140512522 20.239360382652173 20.34562762625514 18.605355700359073 16.595266197638935 16.161358934872364 16.772717468542996 16.98586859930388 16.9177084379455 16.989457716274707 17.269225052852054 17.126788333832547 16.683516820374045 16.201458634691832 16.122729081294732 15.717886422974649 16.709059019819048 16.722298097105597 16.507466269493108 17.59459167320821 19.331690156142866 18.791120205721406 17.600142652863646 16.360430671998014 17.304045562898683 18.146251735826787 17.149326453967696 15.69177598977755 16.55645891382427 17.973974459965902 18.997054065787868 19.486428495342373 21.308430947117852 21.41991520415505 21.094430124962535 20.815492008211056 19.161321183722357 16.96924082184549 17.387664156570736 18.456803877286266 18.391790598664457 17.764936934675617 17.69645296449243 15.859195659445112 15.176426748475308 17.704828112341595 20.278572668968668 20.492901342607812 18.491207969265595 16.995528512918273 14.544110529374453 13.626555942962773 15.212180416904996 16.72365077455526 16.52537919147326 16.440952809073718 18.188852001089057 20.53855410106964 21.37845134437716 21.560513615427023 22.465845452889507 21.091815139377342 18.273867882351833 17.37073513824166 16.312408070556142 17.52012484203959 17.92083807619665 16.36110032523539 15.427752111872033 16.167225291562637 16.8718013211533 17.29403701851989 18.101664754676985 19.396057009874834 20.117563789015588 19.2854773506835 19.018054441518608 18.744350243084654 18.4066748798092 17.401623872869223 15.767835005308193 14.799518803331583 15.025755328024678 15.609423505843642 15.074239149597215 15.51536642069932 17.09162881081642 17.149133776136306 17.41660831987197 19.757331246102588 20.43220042971598 19.366625412743613 18.977176493459275 18.357256401388337 17.94660123802307 18.842254562578546 20.630008179473354 21.546976974314486 22.7926550387701 22.730803730907375 21.278213333899963 18.459556443771746 16.964307656573414 18.00178970664242 19.067160363904982 18.7776196254536 18.254618414957783 18.851576660256427 19.80490198217709 20.484888810795233 20.12345858590294 17.862688063499398 16.65866859215129 17.1998362517326 17.24122970842561 16.16541680624735 16.357823503746996 16.754765597276236 17.517517817238055 19.38119819644275 19.71278431737255 17.800110436569607 16.84345569445245 18.32000708181638 18.750048407156704 18.23684953879434 18.4912878105742 18.199492497056532 16.88466101207566 16.876240517295326 18.456678890703973 19.8947195085569 21.237240717041175 21.629679131605805 21.454400332863557 20.18207928205543 19.588399383556016 18.54700482364443 18.095173844493086 16.907384793066228 15.155936550800893 15.358270530897693 15.04269074517412 14.912068383439262 15.223507371394142 16.751258462627558 18.27838193987048 17.88126523997813 16.140869559160848 16.698810630816606 18.737488592647704 17.346384361682475 15.179956042527301 15.27571278798089 16.651423357626847 17.833126880087633 18.51827826732133 17.997744131979257 17.036708063185895 17.478778058112503 17.587475314118972 17.82140393872077 17.350302325640634 16.487330826853 16.403918916624754 16.18242122222356 17.255768558269153 19.391401228270304 20.928331826400413 20.010872291267546 17.888704077641034 14.95110111925244 14.621646950695908 15.012545042877262 14.516383070038774 13.83958963024448 12.433941308420273 13.646489774917129 15.781768676422686 17.00597142417453 19.769621761636778 21.097975830511647 20.474267307179787 19.0042730124653 17.29654240566813 17.876568752605973 18.744606714029235 19.028759218920996 17.927756977182078 17.64945538592879 20.54213532193357 22.471830217768854 22.990672567036796 21.506375281211337 18.62099723744073 17.414769162291808 16.243141522832214 17.745989736414465 20.554681414508494 21.223616277999962 19.735178840924192 19.259567182401103 20.139952448757214 20.24189928182921 18.609019968448674 17.18157520306335 17.75755979069 17.844560490078393 17.137209672541637 16.42438434246304 17.054973295222165 16.270106956948453 15.572754803093744 15.661408440091202 15.777059972586148 15.372902057278312 15.365406603054211 14.328222269075733 14.314704016661702 16.41699617670963 18.125278282084043 17.225749681895405 16.35815459176228 16.708527280031042 19.056363083813057 19.859913406577 18.130083497076836 15.915725067825916 15.527019773335706 16.270408318158733 17.57212895323235 19.854396636851718 21.196460066197897 20.10712482230328 19.084082256223283 18.709751072922078 18.250273740586874 16.15303494138142 15.92580665460255 17.98482388602856 19.4279585766618 20.04869633392793 19.587795061456184 16.88880063847062 14.963318005056887 16.331208268806616 18.939665901159955 18.97881122916086 17.436742587912672 17.763077028312452 16.05952670450218 14.905741508004347 16.015758976478047 16.506794625544543 15.66626021545822 14.911558388807611 16.15286278682187 18.326749004891486 19.943912538295415 20.902104877285726 22.037752710786933 20.983529061583884 18.50151051948289 17.016195347604484 15.575868922650944 16.163050636245913 16.417402628892592 15.86146392914068 16.224557382686744 18.1515327161439 19.564826721303408 19.797821901044532 19.626125797522995 18.72561073634889 19.35037926010049 19.734116977306467 20.010825017462 19.35477123410412 18.469933374784866 17.312864419191513 16.781178916240066 16.66392606997298 17.07482158735888 18.372993183379023 16.996937733146535 15.109805237196634 15.854412203500035 15.946562958964057 17.40501497915215 20.010033338479143 19.49413827732937 17.978826098382605 18.075695868386447 18.107727585365748 18.49016244002828 18.939873486889816 19.548341717324455 20.352504835665332 22.013404470980305 20.948648406666774 18.68105395628587 15.512390996982543 14.906665161681143 17.146154776524092 19.53401737744682 19.370610723660196 18.667532564612117 19.13486491766811 19.644562108396492 19.026692109391544 19.106107797462485 18.36942132633643 18.211530526115535 18.184050727961104 16.829448017716587 15.656640910467585 16.23318447067565 17.084027731156585 18.177417337583265 19.788705086647017 19.781415030468732 18.518330675215747 17.52198173014551 18.597324738255935 20.093361406952294 20.342750962967663 19.452732216642783 17.39695834605984 16.061245016974414 16.84754264657953 17.435471345804146 17.769499783630163 18.8844023398663 19.640523931811476 20.42543532978186 20.133452603713547 20.211241625783316 20.632414551152912 20.605217639681197 18.747174040863808 16.60353669307903 16.795677522125573 16.32014484629616 16.213430978669592 16.809388598327466 18.1016601323068 18.98967920061453 18.074232354564472 16.749567635246258 17.343620360007435 19.2693201783913 18.264634253910295 15.932814891378202 15.165613508548207 14.860032706244635 15.85192310753596 18.062715098435756 18.57121887416509 18.381020350626656 18.3789923771442 17.574145651987745 17.7923443511982 19.061345402651302 19.024611458898306 18.123037023552858 16.927010750102635 17.77119391283206 19.290482525612436 20.722164619534546 19.697931968988527 17.34007940199961 14.549418844212068 13.478902954805879 13.566298862168106 14.025942174812805 12.923507384368452 13.231871053854048 13.339177702398555 14.891261094405976 17.006230879592735 20.452276988136305 21.507420176603002 20.93816658374274 19.830053984969172 17.758247120501277 17.606948046696814 18.140242917415563 17.94745344998529 16.59026172009382 16.196259514334955 18.76488887175177 21.14436355822593 22.71777735630781 22.23374298791183 19.633627844753878 17.46105887766983 16.474576219514578 17.685429284203487 19.635525459047244 20.11210567367184 19.26514393561991 19.75159553146574 20.88591772192365 21.61865716193164 20.754734786690523 18.572299989958225 17.21990975834744 16.352334373558094 15.887319342319326 15.761524444216029 16.43172735665067 15.557005052536336 15.521215973579812 16.660616234121136 16.851443074303294 16.82921356864266 15.583954967973204 13.140519952916305 13.074577751397115 15.589309690410868 17.122767061249615 16.823171699195456 16.67402013540957 17.10976427412234 19.232610553671943 19.79080540837497 17.906238137563744 16.400404297874505 16.361111480411743 17.338770446386444 17.883225459577933 19.46067854107861 19.176585362433787 17.347306780659807 16.284673441703223 16.827954636816298 18.02515631790042 17.23695757654201 16.37311890684398 18.059189897672564 19.30548445201259 21.05725953551725 20.888213997189663 18.71739905815684 16.321753688811906 16.0790545749712 17.797305696670556 18.234195717575794 17.433088561060046 18.406209443737126 17.570001402285087 16.751536847436604 17.739782849423502 17.97795741120474 17.491050803227377 16.092207033350434 15.989031461655085 17.337673145318213 18.322804030820844 19.888071850209865 20.70783255610151 19.618852604495515 17.70213621433866 15.873766459300496 14.732365063774834 15.681414175761681 17.165460268681397 18.263837417505332 19.290172126511155 20.13243207074597 20.734789627984046 20.93821917973191 20.559284709986873 18.410030307283606 18.67105614866353 19.112361391094108 20.019340899001232 20.15871545450536 19.221110797936646 17.58180467273801 18.137904484168594 18.554499637135947 19.318889756305207 20.27328168977179 18.20574865217763 15.651184129720743 16.49695433050128 16.663050677306074 18.29671540418413 20.244301639371795 19.017149192042197 17.98811077439895 18.469615917756038 19.29812533532714 19.61804180118669 18.539872693292516 18.056789260573396 18.694744384739053 20.738402921890977 19.356999743349203 16.90527581776906 14.600251005475991 15.116890051688152 17.605617449893852 19.970913799822345 19.384232277699944 18.062758040013673 18.786384900500057 19.05868586840021 17.735651445695304 17.96097952669972 19.12574383846345 18.973611895654432 17.9175254228319 16.527184857401462 15.362947607772043 15.768669645364358 15.952542085773105 17.281818958286067 18.911918110289136 19.568261324824483 18.57478394575397 17.526375301057847 18.2026280350392 19.467208251635153 20.17332179447558 19.803895923975453 18.048533254816707 16.598404120741208 17.429222528757965 17.104208845953202 16.584932469006734 16.53402278096451 17.000795895381344 18.16041932196117 19.294651405980122 20.077625899527618 20.50369889257223 20.504981716914568 19.09726953957556 17.62955628769775 18.102003287344182 18.779312698075934 18.55320443347418 18.682131706793495 18.994236283759236 19.354518900635014 18.79603236161925 17.98822633727827 18.413350162543136 19.593595670778964 19.835726230852835 18.334147714423317 16.82751706982404 14.970051253663112 15.343187148202587 17.449634750363693 17.20899682600905 16.974235936910926 17.31544091846982 17.30969178301956 18.643244305001627 20.636907880578296 20.908796359381448 19.416154578764477 18.09267096954932 18.58432781965093 19.905837184252228 20.544196164805637 19.381940565763887 17.449836768712345 15.195541103781963 13.620649681988352 13.85651907066857 15.11793004670487 14.081381209257241 15.699449239406118 14.807814914227682 15.120104864940892 16.952041414060613 19.719318594330915 20.339580864781905 19.978008825387516 19.675884428727105 17.681456450702626 16.37185039988358 17.14619502974789 17.819431369350077 16.819923735907512 15.721780428146264 16.344457605155235 17.844597874997863 20.017972489145475 20.455013589131944 18.642517890823697 16.136027510390434 15.373593066144684 15.70393340308155 16.846916423870134 18.247302520244585 19.00788631620568 19.541360851893746 19.93254653944586 20.288990147314585 20.586891412416293 19.202476159355125 16.68182055683421 15.48781149689046 15.865960081665547 16.291891767329044 15.626953990079166 14.433304580619613 15.51029922524989 17.27548038806302 17.317314825551122 16.940346353961313 15.179824902893722 12.919602321172361 13.32842421835862 15.456111476981459 16.776372970003003 17.54201770829678 17.976409443626434 17.560637215648097 18.69012211868788 19.719560926151505 18.419377055772095 16.816115859165627 17.729143909348213 19.394346994868236 19.24516989053041 18.9599305577677 16.857284439522886 15.133496623567076 13.744618865418245 14.624758483653997 17.47294839708608 18.18897680288554 18.449650424070118 19.619021225867133 19.299016884329543 20.174943904770615 20.247166588661454 19.036457512415343 17.056223662786184 16.408143181445215 18.31665092600468 19.68613165420835 19.502244986053807 19.886733233279365 19.375415020814412 17.9767772060018 17.66723707808125 17.754617565657266 18.592796264021985 17.820055033815564 16.30611362169594 16.640116731948094 17.53055360069963 19.631594299918326 20.746816415152864 19.883756342632967 18.12365154927372 16.11301899630597 15.627731405168557 17.020065567646228 18.9691421656709 19.951496501143716 19.979938826847036 19.05246370025679 18.352470908047344 19.012010057879394 19.60818652470522 17.757743097221336 17.23716305585179 16.84441576135875 17.73084343798581 18.937507482884815 18.856869268761585 17.571116287390947 17.395103708424934 16.744508439585534 18.17127060679473 19.887100390360636 18.45566512669844 16.512476701092215 17.59264747086469 17.333753202517553 18.13229471212459 19.62667643527136 19.017611494513087 19.4662975586633 19.959724284409926 19.879308565705333 18.90428981412517 16.65415150434814 16.12839686751597 17.22093655646783 19.324567554001465 18.345981959830063 16.08674206099435 14.817728967910787 16.298403296244363 18.63437873524862 19.696649761682384 18.328609545263145 17.175857140703748 18.19888877970888 18.31236304159147 16.65751579018392 16.968352237463687 18.549785986233044 17.406388786038963 15.85975686743534 15.467959529173395 14.799683522468483 15.186378495620778 14.515555887165931 15.780466539251869 18.624650228758334 20.368003764228437 18.93954775737646 17.684804538004478 18.430890573434947 19.035150033596874 18.8957821263973 18.768985590950102 18.03146797586534 16.88080639166596 17.05715851406511 16.44523411752719 16.14557215660234 16.176584813416195 17.073372880256567 17.850332339507382 19.254569527896997 19.664151782013878 18.651796540243307 19.04236614429763 18.588615994489967 18.08091556740688 19.11864087088825 21.246508626162594 21.56443371659339 20.212044335858284 18.848702939624268 18.181602182012277 18.1010883062448 18.470638042570304 19.642040394299425 20.290377809441082 20.668512060170645 19.8722374706666 18.709454762065203 16.59170345666083 16.325047623827643 17.35724989000507 16.560455914084457 16.53677251687081 17.000257488272457 17.956828300336447 19.229463133384876 20.252841119561086 19.586303687943968 17.780245683679084 17.201589657267565 18.035972931842945 18.799444705945827 18.610847507563452 17.961200760988476 18.034364590988513 17.572391347017977 15.731590378089411 15.58