# vtk DataFile Version 2.0
Really cool data
ASCII
DATASET STRUCTURED_POINTS
DIMENSIONS 200 200 1
ORIGIN 0 0 0
SPACING 1 1 1
POINT_DATA 40000
SCALARS temperature double 1
LOOKUP_TABLE default
19.468304432269644 17.390026651613784 14.177068047780415 14.675433637346677 16.26218955377126 15.080758085801342 16.137480469167166 13.718726177490254 13.324302194002952 17.81435114703536 16.644239962680395 18.0800573008022 15.094799821868019 17.379873428426862 21.638024808256162 20.185267782952685 17.17677162179263 13.430506753338879 13.602490726210462 16.023228401331686 18.42736235610502 16.935173731690988 13.843649959951343 14.119680438213946 13.431526101618273 15.292635242916257 17.551234542390127 16.71864764372286 13.53443809434236 12.960885336041931 16.17379796509948 20.04669959923032 20.538230027151187 17.20833916076016 12.844270519420803 12.632240558276584 12.840087452606824 13.16645250575398 14.13445321705199 12.690908777010375 16.18928117900412 17.261387344374896 18.908125532676053 18.99261921812525 21.053641791553147 22.231467504844677 20.577425426285735 18.111007054000147 16.067133824553924 16.19933677560118 14.651821976691908 14.34999160084078 12.412366165079586 12.48931521244882 15.615714799892299 16.615745555013063 14.770540313535744 14.427620612907019 15.375428170893015 14.454168961922083 16.186869063582133 16.562747668807365 18.04611167002958 15.793998362711138 15.304007662475913 16.496445219840908 14.685630612954077 19.699139734098196 17.562108410017192 17.91324240822026 14.458176348115872 15.176110504455734 14.230924575893326 15.35554326043312 20.203120919580016 19.74867446827974 19.138797192118652 17.23920016810721 16.444257719315207 16.48676147642292 15.15475795130109 20.29365117397113 20.910982476842104 19.627876307728638 19.560211431291552 21.907718825978574 21.84914153135854 21.447863588951833 20.370176057891285 23.153463082361874 21.094496111596197 21.01507945931491 20.515114285461358 19.030734805065773 18.094345586254022 14.185686481010078 13.360451504296384 16.86494539384949 15.210446566982398 17.946356843441116 18.804434176014368 16.783413814492025 20.477010339832585 21.20350869601217 19.554976469379326 18.29362740963001 16.76088051499678 19.893155593868173 22.041372228049113 19.164380634340993 16.37150330494538 12.842221337123405 13.285651655561436 16.069991134374867 14.067836840162082 14.670405995782847 16.522134910363054 16.561519641750206 16.906031941047715 16.90263569008882 19.70003412044321 20.408788626039758 19.10750782064803 19.974623982173217 19.697466479289552 16.053222249122083 17.290488862559087 16.321381031773562 16.388480636777757 18.027986598061407 13.74834234109521 14.717218303539823 17.27682848361082 20.459924112571468 20.84947709479439 19.72066881065104 17.281008028216274 18.56447833087638 14.742525041155934 13.85040770511098 17.335754983667023 16.10777050767954 17.30476889427569 17.112115061602225 16.666387333221273 15.191258145619791 16.821426970036086 13.927695392861777 14.953526372772465 18.302387101714455 21.213696576922782 23.061569353311675 21.684259213837183 20.623375493771544 19.24534778039135 17.731714022855183 18.714324841170512 16.86268231378986 15.080582006479974 14.38633664732058 13.770488240695656 17.859521559689572 18.421644202101866 18.46905875097031 16.773584249306776 18.18287854959466 18.595033526905627 19.028309970478006 20.94690979160449 17.75223010548806 16.005007129497564 14.273718374936488 13.321046498104973 16.219337714874033 17.10142125113185 18.680560445328485 20.810616565674174 16.65733208946661 14.801502439404214 17.242366828719927 19.968508499115305 18.256760303496062 16.708464704405525 17.066893084675474 13.738706263897402 12.840459306579334 12.467874776673678 13.26330764545181 13.335463932232503 13.720080133734351 16.683180706968464 19.620311575017023 17.56402704877889 20.024913991252394 21.882001735766064 18.870003843275974 21.986855476605474 21.0097295746673 18.866058751637464 19.728206427721457 20.81247070384312 16.411435481790285 16.943247792639365 14.147785783080236 14.671548712384054 15.339779905033987 12.049857612754892 11.097568556776768 13.341476670871325 17.437031235251176 15.620764021815411 13.768799102583188 12.448252402962158 15.665567300565444 22.00420671895462 20.633320639188277 17.081848300017594 14.731360820885751 16.586232447448126 20.98743707688463 20.49801981500206 16.18576786022011 15.896494411650348 17.89957305351235 15.71226164043245 18.376368425858818 21.984173895843636 21.068841741832138 14.738092087656845 12.588361126833188 15.434250460610558 18.905539148453933 20.1799448983343 17.189526681920057 12.438490865556483 12.672807098622252 13.317353127052021 15.603334569142614 14.866806937411859 14.474650063860393 17.34153490627458 18.851141645338554 21.414804316358456 20.583287518238016 18.667021199169174 19.510287055169844 18.55190630822002 16.700439788940386 15.88907818195194 13.933269133036115 12.913042257329675 12.226359080315415 12.058139694456822 13.919359105326043 16.54267361877399 15.310757385869781 15.917933939072105 17.8164625309006 19.61113101210737 15.774413760196689 14.386278154088068 16.919865345748512 17.46532850736907 15.69803386551654 13.938618904086189 14.931341720820756 16.24612878416253 17.922324346537252 14.838386768511509 14.554502583967658 14.530895999086768 18.165496989451086 15.015178804073567 14.882294474296291 20.70295388666397 20.381277144615357 18.309959535694006 17.337873321289592 19.12946873622829 15.731558736745448 13.534837263612845 18.934567765144262 21.1793145959537 21.670418777547322 22.085119049001456 22.391677305051186 21.03602292410045 19.974060281123265 19.348748495807 21.348641671802095 19.94908652015813 21.53125577277035 20.87114411844914 18.354448912222637 18.029708715560577 13.930877232687074 14.633646268828898 16.091251442539246 13.299774048651336 13.546067508014183 14.2537873076704 15.222958214270033 18.187820468532607 19.30788249143036 19.573485077825193 19.241351019030407 19.017580800080395 19.988703255133593 21.484340333130227 17.493852418602913 13.069487123851324 10.629008986952526 12.8247772420402 18.816729372723316 18.184153098730892 15.593099375119595 17.4824284555752 17.051636897691743 15.302518220597214 15.01915935915985 16.062593702316573 16.14084642446822 15.150152792326665 18.39190803918656 20.53376740815344 15.817562539041015 16.564095363049955 17.152567524017723 17.630652380363607 17.34870117855744 14.602037507595465 16.381927232133258 17.80594765342608 20.703210834506017 21.536763783690798 16.934087036549737 14.69702560744917 15.91327791258258 13.164600982837845 15.176608051886749 16.106389686297888 15.481238684637175 15.47271006584497 13.846965327025316 14.786748205298315 13.756637044255445 17.351948039289997 16.81374668405938 14.411108479154585 16.141191095492204 19.04991104892273 20.261788347871025 19.899128949575577 19.955702955457223 14.725810686684063 14.092887639330348 15.976588890301022 14.113317985431744 12.651666584854746 13.377624185446907 12.447916604261817 16.927843202038027 18.129495081256767 17.342695423744704 16.1013502584405 16.105070044667613 15.07050772460089 16.72260715470122 21.24151445466564 19.58518112524656 18.765451939728305 16.657699627362064 12.008245122658732 14.00022474076859 16.06838287811908 15.999552173662023 19.652201293084502 18.569287301689332 17.55843447439228 15.903448412709437 19.369594473716937 18.41445879319526 13.944387575326873 15.474952453303112 16.043913880123135 14.263873576292655 12.607121771063587 12.980827588870657 17.137010766386492 16.643451538921536 16.99522760336053 16.799410978289448 17.219601336023903 18.317885538366582 20.287236088528903 17.60880687922014 19.996013802870888 19.46163407509245 18.679896374169225 20.841235316673075 20.614200738997894 16.84820860574023 16.961219373761697 14.018290397092638 16.84810396264733 18.32757784774384 12.406927222370244 11.303379793644421 12.58762294736373 15.58680468863554 17.147903123213634 14.80467694884773 14.866526614304533 18.375990848021583 22.463522539235242 18.793231567876926 17.255346898752688 18.193460767519486 16.99481270998475 21.24800864075257 19.49116867443731 15.699105210885383 16.144507794514713 20.28049240828492 20.38393353405123 21.37626363282523 22.367801941570658 20.99008982669069 15.522924223814192 15.630081925393041 19.52479904264329 20.86417335538051 18.400330311579157 16.707734163178213 14.932615353928371 17.53240628417784 16.50617093464227 17.77110835361278 18.766730721719615 18.940881782124862 18.085125190081378 20.349441105738332 20.90317575292942 20.763885243607206 19.900267072955824 19.884000922625507 18.55687117370362 15.939297574907073 13.294418572591825 12.611925523023945 12.569737561442532 12.284810647495512 13.007827338602828 16.693798644936496 16.63908816642828 16.958696351849113 19.476295833816874 21.839629927670764 22.880609074047026 18.656298136191754 15.306909257007748 15.038306223284852 15.812000792455091 16.41139783582254 17.075594183147338 18.92124046845969 18.728288471068478 17.194850757757106 16.889398185819232 19.330642437338284 19.296510148877857 20.078548917633295 15.016925182794907 13.858475830218177 18.53644328265544 17.751168159265344 17.015981076512865 18.839756293212076 19.845576830127502 17.206408424165975 15.110362214216732 17.364680062841753 19.28149903414554 22.134415544769006 23.512251102805187 22.1634913550335 17.94070672564119 15.326555435304513 14.363761090827083 16.302175165287903 19.30619872236278 23.1005413556731 21.82047842560248 16.55600654273632 15.284111693748109 13.00982595440932 16.758842903384146 18.512067777310236 17.339347854997712 16.121120145708726 15.690609939559684 17.099495968811564 21.202094201298195 20.88632993686709 16.5500440839429 18.247829854282564 19.43053376942828 16.951721050246146 18.38844484425775 17.912638920060466 16.039490796880767 13.824194737197883 14.793729258575777 17.548070564641762 18.252369722164435 16.86500552715393 19.554970903519433 18.729261543075157 16.14264891670706 15.187996822825625 16.276874066673336 19.35703098488032 17.73099715046727 20.229282098698054 22.804376365531184 19.681389629196186 17.075027882708277 15.65092942951341 17.293776135001977 17.91603834785902 17.004682767062725 18.781026848685908 19.528135922602377 23.199483486489953 23.801452714166434 20.631448479926476 18.06788413297979 16.45372182947771 14.166965540569349 14.268343078518134 16.195539585199096 14.045104640531342 13.44542186308452 13.51040283100691 17.00961668439034 14.601791940107379 15.981818533619146 19.432970688647227 14.924228608629935 14.049755473272624 19.31181975346045 20.17346152294356 16.02767725400854 17.80132511963179 15.755044290813581 19.023360102165224 22.333265621665095 20.402243842897473 16.50028873732885 15.197339603500344 15.072253412111275 17.144879623022778 14.584689906177767 13.317061444875986 14.860037894903245 18.14738983551965 17.568696220633033 16.69561368049641 18.91239811829981 18.018899316456285 20.238286866201236 18.703278320616064 12.640775464391444 13.079445665702027 15.639627734368656 15.543660525614907 15.522451938140916 15.159266196371142 17.62943782217954 14.512377091281163 14.629428686333576 16.416284697727235 12.226083452581273 13.31194870353914 16.06527186542702 18.004619768762442 17.61147492762915 15.92617389024181 19.522551976853265 19.686256484264586 16.964946452158696 16.661705111903327 17.176897120653773 20.62521010957298 21.231072310020906 18.87396008629047 17.26546899522431 18.14927896786088 19.402059960125914 21.493721243910905 18.0753383519132 19.636012226678492 18.549736376944697 14.183393935465222 17.692978764445037 19.918498799753245 16.300105759048726 16.20340052115612 13.869387037013592 13.908721056488751 14.234739794396543 13.647653055591128 14.705176460732753 16.582557423483617 21.809639097005714 20.761164697701815 20.45149178655915 18.24361372500864 16.085918242202123 19.394726316374395 16.61470428938067 17.788142043218283 17.89724384934765 18.512457232935954 17.899862513727843 19.142832881534673 20.668422194758158 17.951200220320988 16.81888360067714 18.322088264686286 19.201635413860455 19.621319026016653 19.600734989096708 19.29722564929849 17.648675783295417 18.467638626661945 16.22121041957095 16.905235673787207 19.066074165264325 17.760816619670557 19.38423917694815 18.77800666314936 17.946413852637267 17.72964023403081 20.988461003547787 19.44742029020374 17.848331449530296 14.526601835215784 13.62218513221564 16.264524934481095 16.09033500090493 14.046746143158522 15.599765206547524 20.192888396781395 20.836138142870496 18.062534820414978 20.88902920690074 21.391762078735347 23.005463150153968 23.28029524570009 20.352347748103654 17.64056775405345 16.623968801843038 16.431023185725696 15.417643061533484 16.594120522542926 18.965099223103465 16.739221643553574 16.169438007422883 18.83895796968272 20.38207352294338 21.884218459267867 18.707115043410095 15.051842194803683 13.195380410047731 12.16782838653746 13.699506629854763 16.621612245496387 18.532206189286114 16.82796815218704 16.446495624311638 20.84300165060938 21.015475976180856 22.73763452463619 23.460878293060816 20.625433573476833 17.090578516702834 17.67240187637664 15.593987637496737 16.74332014924376 20.032818352373074 20.647959424556493 18.81199786243769 16.84628691825274 14.977099052673685 12.969347979890863 14.86189959416007 19.50169643938554 20.601701298605033 18.648934238381443 17.900409165483598 17.135172664231312 19.81827879249056 19.251006061172305 14.839403015162555 13.964848969850003 16.242110258960615 15.453212486039753 14.789792103360053 18.497784849927477 20.14004848826841 18.795261207052132 16.53395569950185 19.62110584027231 20.559337627837724 18.644967646774578 18.89038116402723 20.178508099588463 19.432735922239875 19.10551672954808 21.602185529778886 22.434981534455943 22.800427914130225 24.237147716246106 24.892546262718202 21.880897298918672 17.37120576663307 17.62835088929089 17.56246185228964 18.325877270043314 17.038133602791614 17.95459779890369 18.928713943047953 21.651338321281827 20.622032042029865 17.500222690241365 15.991254399874885 15.684287971088455 17.035781962466007 15.441841629543925 17.646234964078943 17.136998343054536 15.353999781291078 16.645220792197904 19.09012562819924 15.387347285210714 15.641811367490211 19.70330842995331 15.486071829089472 13.824821824576592 16.559965404161822 18.422226144463426 14.911320940431063 15.604313616122065 17.649811348922963 20.72384029066725 23.418389378818482 21.910244242710775 20.537591618055576 18.10917361799267 18.490843610901702 15.47977740626526 13.44393121100356 13.226142544800592 13.592714386067044 15.88804883190254 17.575674950389168 15.84086897799178 15.296402710584488 17.358050480603776 19.94172231376781 18.207473657192406 14.49783182111824 16.04742164954182 18.090244168047544 15.38586533841304 14.732850006970448 15.04262736956803 19.417544715077373 18.53770252455363 17.342723964623904 18.504100337191666 14.607558916739585 14.79254684681559 15.8540884261796 18.652223435555666 17.364815734306347 17.15914767794473 19.375092426442638 17.24480592982107 15.681086252389363 18.320625595186808 21.35627391714716 22.639675701600698 21.028558038962743 15.598228424488246 16.17120567640391 18.281544220764285 15.666004620346252 16.010553583457796 13.293862202469121 16.140563134600562 16.41861546440795 14.120515250017919 17.92594586524772 20.89069998276802 19.08968556066287 17.897266314517704 14.153133499651897 15.034156921141385 16.14872696142025 18.309805001456766 17.459382321792802 15.196548843703027 19.8738908467 21.317272650297866 22.03027356221631 20.020553428200145 15.440238198692931 15.918003149930916 13.509404617278642 15.981184806538822 21.234779375837682 22.124928141259872 21.046712405767668 21.022952523375125 21.599341995353296 17.824868657214918 14.731658165632654 14.954313446356199 15.61142826563816 15.463978140537108 15.65409514702036 16.671719984093112 17.325513543631192 17.272899862507156 17.596401208244178 15.89233127475888 15.719737407655593 14.125369422299912 17.17260194446866 17.316324410056776 16.267102854579022 17.217349403470163 20.55885735451074 19.47133569313023 18.57096492450401 15.487376492029437 17.6319842604615 19.03992999025166 17.519243126580356 14.84801088787099 17.58974120701173 18.588713165983517 20.046392225404475 18.36060920096385 22.456890147278827 22.04396700665108 21.04022743491559 22.09107968106171 19.60607113362614 15.709390978473877 18.536636829033558 20.099701293217013 19.111503587650688 16.208069665716874 17.602150695360756 14.5794777843912 13.289664680282147 18.25409545268491 21.85635909957031 21.96950082097009 18.792923175749284 17.936748163663513 13.205159303270321 12.085775600750672 15.322072865825692 17.934158558907566 16.22997017347199 16.177804510212255 19.55864616060901 22.647786591424186 22.425880965090844 20.633053525762655 23.492408803312014 21.94342018983167 16.995634951204277 18.042075632206526 15.375564511454854 18.96020412111125 19.27446484244657 14.782887467861276 13.059663639556735 15.213366104965543 16.331382475420376 17.46334851105476 17.954925588655957 20.344979990246774 21.587965199105586 18.744503942485867 18.98386645238152 19.103560689472815 18.246964622394508 17.279489429743027 15.26162775861888 13.411157489205802 13.619407842768993 14.878611974910253 13.270362714193462 14.315242445505612 17.941822109143825 17.646220097853032 16.420639615164323 20.50971839800121 21.960595195954454 19.979141125242748 19.63767595871253 18.05554174267407 16.57462825745289 18.227129519739563 21.818536364464254 21.53925501568733 23.73772501044811 23.75996658876877 22.00973701050305 18.299316430659427 16.554442576533813 18.82553078839856 19.92921138977277 18.782123466777296 17.820624930906952 18.85533638146314 20.016525620881076 21.338853016734426 21.420048419006406 17.038539092608588 14.926158241289064 17.350592536235855 18.663279372713653 15.92161911210653 16.057036960855996 16.4004386963971 17.164062581248697 20.964259385161643 21.460848404228614 17.687610106774194 15.412630011733071 18.741940037183294 19.68995294298129 17.83365760178033 18.78150063103919 19.487578325018468 17.421343936315843 16.08171495655884 19.56562314253169 20.762506869172828 22.033726259555834 22.59553127608431 22.961730256169588 20.396382634943162 20.506392062935983 17.86339698624757 18.679467381451342 17.880132971986495 13.857646093054266 14.89799584042583 13.629991805723693 14.026633496647849 13.631326363678058 15.779407228086024 18.303396978295975 18.74318427797174 15.256831275741185 15.856144079255508 20.95289768342917 17.92766542846749 13.799826110462973 14.798791635503916 17.033459192190712 19.15161364088495 19.704202656325055 17.79187527738413 16.11812304767774 18.26315696267065 18.109250313828344 18.422548890868722 16.703176717269898 14.470693946504326 14.881260993956996 14.954296279360996 16.905125924897394 20.334709990047337 22.323846834876058 19.612862700045866 17.785708964985027 13.074911213341114 14.365931346138808 15.374101563811422 14.046352957690258 12.698997813459487 10.75338481042486 12.448024041667146 16.94636636936452 16.86263519323562 20.687920268212583 21.931062924667888 21.166281857682776 19.267345713707865 16.86906005416227 19.05880614613099 20.113847419693318 20.896721217490423 18.646929147245416 17.21195014498895 22.211135474209847 23.877078019346573 24.242325007440087 22.37287285545499 17.767254145585458 18.344312561448824 15.33773392806742 17.375161644495076 21.93237417973793 22.71485011043519 19.11271464610348 17.58125093624345 19.720991227087517 21.279614073319895 18.515428855936797 15.855716457565123 19.14141335546111 19.681091313208665 18.20917698064045 15.575276352453729 18.103641992124487 16.079975576098224 14.628166535276039 14.890323242286573 15.696275421037592 14.21616551796902 15.169600238071082 13.494639914768431 13.088993908142095 16.47750705953601 19.320272020200086 16.532498725653323 14.987589156267681 15.812811927701462 20.45398900274659 21.561551890824585 19.025762911907762 14.998504156072144 14.20928279461063 14.706224907367547 16.12366851930027 20.754647043450497 23.10211635102756 20.51570822160729 19.25052574774757 18.20873694290727 18.934753151237945 14.333474272485855 13.994268837477522 17.98176335050076 20.395171611058768 20.920405007501653 20.935572256496222 16.24288920466336 12.941480140745009 15.234382369999267 20.209284952852475 19.312859549148378 15.689631248396863 19.12129517719819 16.077393650904536 13.750128688539409 15.889685473880645 16.13774069903583 14.374562369884792 12.878585378100878 14.916609695142805 17.564621472956663 20.507924812878677 20.767124300748673 23.4096729676081 22.238863352488057 18.488141201422888 17.689121241343894 14.867590152447749 16.100125234050644 15.749249844952523 14.329264226269094 14.444689918950772 18.491234056365684 20.737727569667296 20.17427239571171 20.199028376187794 17.542332019255195 19.1560065095041 20.237899979206635 20.798744341810362 18.92050003084273 18.164689619368044 17.12475333433339 16.32145813350018 16.538518135931913 16.132966796943474 20.192485109392152 17.975023695026504 13.51419690362253 15.54659092122109 14.32168318610325 16.314166761295997 21.51606285646941 19.58216384003949 16.38673614991835 17.88714793252699 17.141489555716745 18.178144513345437 19.227648937047665 19.506524713428 19.981122738181362 23.397954441048086 20.964827033644596 18.99308855307068 13.53943404885277 12.744553703498925 16.4214758477365 20.619030683079714 19.592059240177303 18.766527912758377 19.278501604175304 20.442659465868264 18.199832657713856 19.8050462989906 17.608761442578423 18.4927841509469 19.526542885777413 16.255039733120555 14.723536681438656 16.334014565042445 17.872294155754982 18.36214485314617 21.056373223306867 19.989629122688353 18.84260603607247 17.09600789517608 18.604140439419456 21.52375981921467 21.80494068860503 20.125360061485072 15.987200975710197 14.389375285342643 16.89158544666476 17.11419778069424 16.61599748575256 19.27756086168187 19.83135052851154 21.612975937898348 20.14470667644211 19.993607168562608 21.72618191466122 22.535235904101942 19.357269080873028 15.571006262111995 17.760781114899284 15.556647268172522 15.77083261458775 16.58098189321488 18.605052592882508 19.964646425578024 17.71830314089361 15.698748207748494 16.460509160619363 20.848442566043463 18.327714716080717 14.350192555033999 14.52138429881951 13.652132631481289 14.401608731020326 18.75048632275071 19.826837025373592 19.7143723571389 19.698730208114615 17.204127954139487 16.494718223069547 19.844252434708054 19.631957384078323 18.711650577784706 15.633539781822158 17.62547567264771 18.34612114075167 21.57782079494421 20.162975707032555 17.380012391612347 13.704194639881852 12.860543676481782 12.575996469001451 14.39522380993374 11.980903249421738 12.144906983972023 11.985215412332785 14.330263988165413 16.158691230832044 22.096498340041546 22.51221486002147 21.52957229447199 20.699550837795936 16.740789693523354 17.803348893770714 18.382909266062946 17.660167332013806 15.446298208670635 14.391665908108944 19.393673844597174 22.309243115278463 24.30447901523619 23.987635485921114 20.28238420126036 17.563205290999385 16.036794564719255 18.26486162220932 21.19969573607134 20.990917085066716 18.113769817604183 19.926591748477723 21.746495951847596 23.460167521215293 22.273179029494244 18.203529725667252 17.03171840616461 15.82305471865514 15.20041368519932 14.608556394118521 17.528348416077062 15.579491974341364 14.89756005441006 17.330000213456557 16.736469763631156 18.00176438714571 16.69744831465033 11.819170464550266 11.385547332485734 16.02171922576756 17.536410160678145 16.09300595466496 16.129456966314763 16.25268645148232 20.301424354495563 20.64145386804161 16.94788718269217 16.335663546124056 15.781951130318921 17.404898746644413 16.73098872270629 20.305028625987305 19.964636738263 16.50532029237465 15.639926585948313 16.951181047870637 18.995006105373744 17.853885035826544 14.41748624929338 17.771760844006852 18.56403306916402 22.67960221929383 22.161869798355077 19.388338263629063 15.829061147675255 15.126157024587936 17.56133882254914 17.750294470957353 15.374327891826878 19.03684519041019 17.182489613626693 15.986468188922732 19.049235163477704 19.061781103356974 18.422028152087858 15.168408997750626 15.44370962245287 17.980137611257394 17.54322138764459 19.82023014145492 20.5778240168393 19.00042744235728 17.25365258491337 15.098171914674417 13.039325084394912 14.57288902545747 16.69459290344804 18.605478434950907 20.61615649380705 21.55996860667184 22.505851147150132 22.23324786643957 22.226553953126537 17.11381530749477 19.30617581061857 19.695825202678186 21.50794598075912 21.46461223272656 20.224584279928102 16.287487070667417 19.42716990698391 20.30652658413013 20.480903659878976 22.286803295581425 18.617142230666737 13.73471565004786 16.96373703416589 16.06093414743742 18.690138487937688 22.020703106294512 18.573433486668296 16.596371159433932 17.596990168096934 19.72696194273145 21.24175129368868 18.958453939796428 17.88321527580232 17.546766878539316 22.405251622257023 19.284792923799213 16.73726853833923 13.243553012897117 14.256805938195994 17.142250835450437 21.636357501710933 20.399786956103473 16.888385201769598 18.9930907773378 19.868520549807013 17.059513747218904 17.27038087692065 20.41420496789247 20.526189365797478 18.77645093769802 16.78814916411454 14.744381888192885 15.957191767400895 15.543476663394623 17.834722659325987 18.673700899890495 19.50144939576987 18.37972648444157 16.60745312682325 17.393587019657204 19.258672498448597 21.080955270925582 21.08680819610547 18.358189222035477 15.55128893577042 18.79261788445959 17.52775494742586 16.388993112507272 15.541058425043747 15.29518038744825 17.237790902522757 18.982405147247565 20.14247771744514 21.51231953137411 21.453965705954896 19.43436260592207 16.900241284321382 17.955426983452416 19.24489628814734 17.584047711049944 18.756954559986863 19.29393720832276 20.450983158479023 19.51728476935097 17.72376994690287 17.896774197458463 19.381465047950016 20.92474148210812 18.71289444772358 17.031897659518194 13.37982243280788 13.848067860441313 18.50952781783356 16.631513407393324 16.09193695743297 17.45311007617309 16.10669087212634 18.438056993225224 22.00228768477723 22.986256719337046 20.715935690220824 18.44483006446634 18.822538921802764 21.107760381363928 22.0706504966289 20.148956768720453 17.197206041580632 13.980351646649638 12.039408752638872 12.930338082004033 15.846849438463618 13.820319761978915 17.10564412644711 15.1843428149444 14.117517938600045 16.398459215516922 21.376856406234435 21.287045905538697 19.794897733261422 20.913780180403073 18.11132643117662 15.641626506289004 17.83668059745271 18.79385969209688 16.244388584821984 14.2679270704112 14.725468338920203 16.22007643699121 20.674958771616833 21.897827085610235 18.610824129271418 15.221186042746545 15.357311958766783 15.61025196094921 15.810799792702515 17.695055464593278 19.779143294122907 20.564134657717062 19.98878574995823 20.144597098088056 22.14145577801186 20.672163558905027 15.622228514164403 14.348911725650105 15.303168486139512 16.57930508746964 15.53263311013234 12.841606724658782 15.351253793413232 19.230824119725618 18.508756978909876 18.690286331990876 15.422353744197355 11.354363021905526 12.227468741417383 15.40353226865503 17.44692669261846 18.161640553228505 18.968075099291077 17.223563401362398 18.535787316590447 20.47083014384839 18.340830001735295 15.480806521965686 17.847177618962185 20.7994769965939 19.17628504265281 20.051193818105485 16.21506982378011 15.009595930461543 12.26834502023865 13.146464024899565 18.589799263607315 18.571481371915958 17.600130993023797 20.571605796101274 18.68716441000033 21.513848798870228 21.647650813293232 20.568870438452553 17.598707672065167 15.579518803419552 18.646842651920423 21.108204985562896 19.78043649011625 20.587610652113074 20.505800227822018 18.45310884879922 18.485178749571304 17.50531359065566 19.830638731158405 18.918385710356713 15.03681853910678 15.786629987878747 16.327421927990052 20.824766898558664 22.134615174379384 19.625211044072365 17.885481575457792 15.69334847838975 15.58941967609738 17.90342089925861 20.7314917820115 21.243248803737828 20.91263700809401 18.153719125131573 17.00846967108749 19.284254866130105 21.324353583589645 16.8557260815246 16.573961915770973 14.878400981190426 16.49996452956318 19.410894246882414 19.253085984657936 16.300030600734473 17.57795954662166 15.585844596583787 18.67907581573118 21.748805346116537 19.466018903978675 15.789685788530672 19.030890976755824 16.942189341389657 18.21387108313386 21.300232105653954 18.49943313094018 20.404265507834232 21.313965542908313 21.085133297214778 19.780904297656498 15.541659130225247 15.678165053934437 17.107025696727405 21.167744725138128 18.47371465675781 15.065953570406046 13.505463449409033 16.151270267262085 19.69724167298491 20.38655628705621 17.503838515485743 16.700258798981373 19.30749970079532 19.25052243011023 15.284182740165589 16.10864849147394 19.678952543508927 16.588933635985992 14.757290303007672 15.990846090298465 14.497299976872311 16.449662177877464 12.786405383349605 14.152726314472224 19.168009947771953 22.268870381183707 19.694327207691657 18.208197349631394 19.899957223450617 19.32820626065626 17.854614854389396 18.572092518956605 18.689287277522148 16.212856938219062 17.372118403720574 15.163023581294352 15.334308600377089 15.51467405723873 17.331986941871655 17.493395388572328 20.227911374192068 20.503596919065618 17.510150094278472 19.130503245053504 18.442428563603404 18.475605206945634 19.585318572942956 23.06310961621914 23.258572629863654 21.048830289616735 18.521037551255628 17.74344182506846 18.84425675855966 19.279938523449164 20.556032498780677 20.590207976054263 22.001725588785046 20.64140966539802 20.21153715785231 16.07869936943376 16.351328134479147 18.857002116714888 15.806389719054398 15.565812729328425 15.733200048713321 17.91244603531422 19.813337409887954 21.49836835797593 20.43825176454523 16.482014017720847 15.97260002147733 17.245874750307014 18.753408658307993 18.554381390614203 17.663017920121945 19.236026735193583 19.39729307256479 15.5373175568393 14.79