# vtk DataFile Version 2.0
Really cool data
ASCII
DATASET STRUCTURED_POINTS
DIMENSIONS 200 200 1
ORIGIN 0 0 0
SPACING 1 1 1
POINT_DATA 40000
SCALARS temperature double 1
LOOKUP_TABLE default
19.552237816608955 17.4282686825512 14.8007204802317 15.055394908053696 16.11092608001514 15.393534189167605 15.709577483531984 13.862101305550771 13.58923020449175 16.950187281459456 16.64661357129792 17.313076574181878 15.28734856604781 17.35175720280775 20.942897554435973 19.831859557941662 17.125049465219682 14.13724684297571 14.186919370413111 16.291009550847395 18.023384028964493 16.491810558988593 14.267627162806958 14.496499295809066 14.145081972944077 15.70369818179918 17.763285523391687 17.03947787024454 14.064348001839601 13.330371545613797 16.04319175158654 19.572185273930096 20.08863781778668 17.161882703884558 13.60841011609231 13.274380192753304 13.244703444867202 13.553387427523813 14.003946996302757 13.313378893639628 16.066722277388923 17.646593477994468 19.029336070244586 19.207082671651115 20.715403489659234 21.522136743117787 19.956719908736428 17.87626656534014 16.327426896352897 15.841819104064749 14.55795438934749 14.11755955260512 12.7074909441072 13.004950442698247 15.615810272811604 16.515008224919608 15.226120938714129 14.961769256810582 15.568466640975776 14.917318381507457 16.01233389507261 16.59159155985449 17.612707822586664 15.91703802588464 15.178258572835384 15.858968241736788 15.162625012217799 18.896951612538512 17.803230303192144 17.582465854020246 15.105399411619588 15.407901211803113 14.860075680635017 15.871184374487996 19.579391205794384 19.587036420170353 18.907069559923798 17.27307690831142 16.63852794809762 16.620443998568554 15.995312102530857 19.925896567541745 20.793654727650946 19.87568571396481 19.815235765439013 21.580970867847032 21.72191054990476 21.333757410966346 20.663836393683866 22.506291040826444 20.991715733842863 20.683136061887655 20.27572305016104 19.19785527087416 17.944357602782397 14.550282236987828 13.99505505440386 16.511338177535716 15.548467616180062 17.40317335020164 18.403454239108207 17.503477231722183 20.293136737401294 20.829962514509823 19.426084604946055 18.277489971041398 17.559446286186073 19.96735408137775 21.41140499460045 18.944971153678306 16.160866877661825 13.449803144134034 13.84386217896055 15.930564622328061 14.644298121313511 14.792738478297098 16.233459813545675 16.489710006263994 16.843741245600096 17.098131825447638 19.25907074039133 19.847839461397374 18.92551143139524 19.900821347492343 19.780714192162613 16.949262331193186 17.372981550260675 16.496054651194154 16.729743236765465 17.664891470363482 14.569373779403454 15.22826894909307 17.385561011129443 19.933735104802253 20.331463933494003 19.238341028720537 17.3816447044623 17.968846000257127 15.123200208885107 14.370899247158754 16.87326631870343 16.224930728086353 17.14736653256496 16.905455208720703 16.60629325126034 15.537416453004058 16.492662127252327 14.593117852768712 15.318834031804707 18.061378671646185 20.94043567192328 22.44553898412491 21.25824712817647 20.452656709495876 19.103770488014888 17.948164522014228 18.464966178464657 16.896868804372108 15.220985583066355 14.40516275835772 14.191848687209962 17.220828443497904 18.036056819254444 17.995489293538846 16.935844538014962 18.08499592091548 18.48630394827326 19.075376979410084 20.3493761556857 18.01999016699389 16.151670527763603 14.57497445190952 13.885045493990093 16.076762690403697 17.3845930410443 18.737575665548086 20.307555200729556 17.29513954304471 15.596269731567721 17.13153092073252 19.212609271789994 18.17315678797951 16.634902048547392 16.36458378610812 14.113182590448325 13.26713479822992 12.921179856806528 13.519994677448473 13.893162497357897 14.488632771924706 16.957259556376467 19.184332964109583 18.20198756820033 19.995409219046866 21.378227736813972 19.46366389877649 21.503363086989545 20.9047601287346 19.28786099227091 19.762125124548888 20.312753874904875 16.923978502694922 16.492154407274157 14.491793378747243 14.992736689489266 15.257752893464534 12.650066261605591 11.665711183488993 13.453968702733388 16.78818420067648 15.796858825989045 14.27402919607431 13.31377924196198 16.289869367041753 21.313928089849835 20.241921951028903 17.2292611987485 15.2830896659954 16.610347798901138 20.138343077942825 19.8674022102047 16.526179645979347 15.969693809196762 17.445981136375742 16.309592521521157 18.43960918954209 21.223390196036608 20.214596312757543 15.092979226231 13.354906507181834 15.89369441050894 18.934231113675192 19.69157983098758 17.021202384821564 13.161144706269557 13.157723288084961 13.70312838768818 15.360086366901145 15.147584204744154 14.981858798070526 17.223336257720074 18.902325062203158 20.863644946147392 20.36857765714783 19.18439751686711 19.60712151392084 18.62293590321862 16.82204708559179 15.63401155004117 14.091225238421954 13.084818998627972 12.473954176125087 12.385267995772413 14.104233572526644 16.19028832168877 15.713351366976717 16.258074223518687 17.851957452951385 19.051427981553655 16.139604513427273 14.962756224495621 16.59955815557639 17.160738350924582 15.783701756852391 14.551979450289053 15.39659238644976 16.367729915987262 17.614919595907594 15.502077798294263 15.274240504211246 15.250373000777817 17.533691463126424 15.24961927690279 15.36317153553946 19.907748943232296 19.91252888712352 18.349740991573704 17.647847429600265 18.542452236236013 16.03489924351489 14.493714157149334 18.680119189874507 20.84528770090168 21.518031606644474 21.962539385325528 22.15112972252652 20.8602449081979 19.760268144729825 19.251241103566347 20.796816213429373 20.214879383928913 21.388833090016455 20.72368418526333 18.444835934602647 17.508266989782303 14.30157838902712 14.786746506180702 16.010191445625 14.08879379685419 14.205892225274555 14.819781878218626 15.749258389583357 18.467053709459886 19.484394609410035 19.289844203222536 19.057659329279463 18.954088655300236 19.759577061200318 20.772372406801473 17.61890787871224 13.799015622383306 11.569281113955086 13.377681418599073 17.924020552716957 17.68463482928059 15.992222839363535 17.362920771616047 17.039664521486834 15.65571270733226 15.359964956559532 16.348961139797446 16.690517546421137 16.101463568091628 18.612606473070674 20.104786352111937 16.638618008108494 16.68925714203375 16.974700094238777 17.43603227788298 17.238577456544053 15.14518420778036 16.452720795314395 18.037053000780915 20.664420724974313 21.187136606009528 17.651875951538116 15.503225188913326 15.877367116621954 13.799505588262 14.960627759739978 16.046382320712834 15.484318112583532 15.35291051105436 14.326603448515575 14.987786656283694 14.351673498232248 16.859767072058585 16.62391179570082 14.873073122836638 16.28618467647773 19.081952958900594 20.30243721071172 19.750596329949037 19.40030957585999 15.610056576241798 15.077986656813943 16.451483253873786 14.933713572014776 13.418560589621393 13.552315708009871 13.258920088201979 16.714046600607215 17.667193401316407 17.04963430941192 16.170411373486722 16.36480657154047 15.815256623722453 17.16378133536594 20.472046741211003 19.3529602174435 18.514153953818003 16.425125956500832 12.776913084179906 14.158887607438151 15.98055626028036 16.470266381183013 18.998008666108035 18.139691818360273 17.29877597254115 16.3123518093178 18.64995623214349 17.925037967374415 14.540758099783524 15.345105809901995 15.671621913305643 14.475029566034179 13.21583201747213 13.595452232361865 16.6579673363577 16.702506503555483 16.951503097881556 17.07052357207868 17.384413594593294 18.712513536287027 20.116956972973675 18.23858682905108 19.710318509248395 19.463431490313248 18.997052505959562 20.57868135739836 20.131891977853087 17.334064401101337 16.834968299785405 14.554187716636074 16.621108177515264 17.583081055902547 13.135627533367654 11.946966462592663 12.933857429983235 15.449694483923135 16.467618789045595 14.845907590296274 14.977691304925505 18.058760558808448 21.669970707394864 19.25776666662992 17.711968508827162 17.792250555550172 17.313604652481377 20.50319289030522 19.144085030950254 16.273148637150616 16.584698008843507 19.586065965698285 19.862329869401876 20.915073337796503 21.91065474427461 20.382384988346978 16.0326741496863 15.922994267633038 18.93267016501439 20.252953686103396 18.65876555690148 16.955677963005428 15.329043998651839 16.913231652569447 16.399156511612162 17.46573473142746 18.34607761620903 18.398094633467654 18.32557047243567 19.948864718955967 20.59212573129169 20.43508937915993 19.93704089752464 19.705499903165467 18.3818360068501 15.917668747598475 13.738220136898104 13.108747067643545 12.89822295131459 12.56363410840481 13.415522298839955 16.44712321534095 16.96327456070037 17.138308079418536 19.275077981776764 21.32199932064582 22.124951596932483 18.852065347263213 15.943737966438842 15.513176045352848 16.01593769811044 16.368526527575174 16.794309334701747 18.226601451363265 18.384845064545356 17.29315333942495 16.89732019106501 18.696575428845794 19.03660756087573 19.543889757106427 15.655390254399405 14.563342637979924 17.821580748841107 17.490052233630134 17.059402221399537 18.461376711703608 19.30678249909995 17.108101517713063 15.531149531720759 17.7602357876331 19.665110742718237 22.00322480124721 23.12063067100366 21.80874679461886 18.29148777645444 16.075090538392956 15.18774455453697 16.883343653154558 19.473600031596618 22.288667532389884 21.12547861742151 17.040123249751456 15.435519180003006 13.621325669297276 16.298018403420254 18.105514597461706 17.269894435357678 16.213741913465395 15.936936479134234 17.18903794055155 20.43942619473098 20.26610882953211 17.134700956729496 17.946441152554588 18.816397967909737 17.36889757295252 18.193026887652135 17.78501539427223 16.114592755455394 14.263309827139222 14.982061066840146 17.612596574090045 18.248662106618184 17.25053161854007 19.04243295396345 18.533952147333352 16.49342452995331 15.720345781090858 16.864659470844295 19.00746578627344 18.305544322175358 20.408084093666893 22.26263063212124 19.575294042177724 17.192741408334786 16.191520309038502 17.277573583157558 17.76330992278019 17.0437172459001 18.43672590471942 19.55879355545055 22.559504937176055 22.97025754263771 20.10628831076665 17.705381896768525 16.300018800435954 14.543232557702213 14.602656154318563 15.981015101505033 14.544906874938153 13.883990093465187 14.114482102679153 16.529379022919 14.948992857461144 16.21150648308228 18.551108228223573 15.26656256264425 14.747283755627807 18.71263924687446 19.612522032748547 16.740135412639003 17.523062996525837 16.290646164511788 18.772879762013087 21.41108350766832 19.83809461919167 16.74084249582479 15.422526434865816 15.327136798011626 16.633495576948878 14.908179999482918 13.910694785236979 15.016604792016116 17.47168105735024 17.319671333883324 16.878868439914346 18.54936843834217 18.308102778546566 19.731436333216102 18.103972192134915 13.333223068199661 13.610728122636521 15.662465574906637 15.624258420112016 15.774948932571963 15.66510858385693 17.312938296985013 15.26041253570064 15.394901303908332 16.277524258874138 13.064093311342177 13.794192726844363 15.975461325645934 17.513421672960405 17.08216750386118 16.199716429885143 18.951435270001593 18.970680024190287 17.06477719007553 16.925168092798696 17.762751832334608 20.359077463029198 20.82989820257551 18.606242930582205 17.59545962880562 18.275105129143988 19.10258469948544 20.700657641806828 17.8227990628084 18.863247580937806 17.95257564106309 14.847733670292001 17.533909129556438 19.3284949955514 16.488905688085786 15.77826292421784 14.018088054900888 14.19489947450695 14.583131907240771 14.28506966838604 15.053391477385187 16.907893267447516 21.15722185852354 20.689032722368246 20.171460840220796 18.376257552857464 16.589044786675323 18.763023955458102 16.905533204019992 17.439447051204294 18.06420491951164 18.845354567965927 18.520202556194345 19.49553892562454 20.520413652473607 18.30998164617745 16.804544859078863 17.77734658226932 18.85006934159171 19.311547249553964 19.147370866226872 18.740773808298574 17.57545222538202 18.018463332737674 16.56444237718008 16.99922053868335 18.46489852272733 17.760883227694443 18.90406346073312 18.7245295501647 18.114303158729772 18.210164227641958 20.462269461764798 19.43836835764821 17.812489709281905 14.968615821995643 14.24533607111749 15.975657429610923 15.764884508915314 14.289834093015614 15.772777208314542 19.392333095669045 20.107842472793973 18.459684199552914 20.70229095447006 21.5229725073607 22.665534311375517 22.475960276665344 19.862992898249527 17.434993660384087 16.76764642595465 16.66859897207653 16.043534653351784 16.865051091357586 18.44455823302791 16.743418341090496 16.28782288573141 18.700022354053754 20.344354600564543 21.286928072945106 18.37724472559848 15.363164630905162 13.750230901846784 12.903549125129087 14.265347587921926 16.79697863560747 18.143445553131762 16.921091576952453 16.966350950141738 20.3540946133159 21.081948296769095 22.435375038091998 23.130012080625832 20.77956071986835 17.532147066386745 17.326749747215388 15.796810090090736 17.057977121030632 19.655929554731276 20.125694959482203 18.555487249241583 16.725554087177283 15.14793552749936 13.729238506857804 15.511042903121998 19.16555199860282 20.10579944257479 18.540643909186397 17.831053886318156 17.562726921424744 19.505478643925997 18.88519197858081 15.354753926716109 14.563659240755852 16.060389921584644 15.586750792430433 15.335263811582097 17.93042536824673 19.29887969821909 18.19017620549026 16.815370700959207 19.332741637256575 20.21123201442321 18.78630093478793 19.045450794115652 19.693003496030006 18.967177645607947 18.93054240857352 21.012094253384493 22.015111103297176 22.51681886805599 23.742649976994073 24.089460841802914 21.248700262565816 17.65627206200384 17.56475293308553 17.78176371889722 18.173947170782945 17.294924413120757 18.111415198041758 19.212829848548417 21.41610124874754 20.72552120577611 17.86422711560926 16.22461787904244 16.0124973956467 16.696920973377175 15.684792952598542 17.15473855421471 16.730413238379462 15.620261343091647 16.827874998355863 18.575582216669794 15.854817329856763 15.993628672103748 18.899357191649596 15.999575349957201 14.624422110923414 16.89670820963524 18.200760901789604 15.588580858618853 15.979841901593764 17.743816627393816 20.504425678850314 22.79751671301956 21.778021060292243 20.30162555246984 18.274069184871642 18.10691752969174 15.90905769876575 14.172300059859845 13.720222384081868 13.935440489975612 15.908110485245285 16.9772288810777 15.87046790883419 15.690093054826937 17.35181196315476 19.444107701714806 18.077967648902117 14.876919194644307 15.864609987347746 17.694616916908636 15.763051925738553 14.868075765358093 15.370130658502378 18.6088658822756 18.20374933360714 17.480289906525446 17.867957940964505 14.91627354480144 15.064661575636103 16.185163635530092 18.21865894255571 17.386296939634953 17.054613185227577 18.649706093741866 17.286653784421514 16.25657683859969 18.380730311597574 20.914405888698376 21.933661604522644 20.43233971881244 16.16393408908713 16.252814334917364 17.649882861198275 16.072074031698847 16.328021560740346 13.69457310040855 15.914412218079185 16.396018231608018 14.902775559237872 18.060887215333153 20.466631568644093 19.05025458600728 17.659784831272596 14.759016812173972 15.321941139348622 16.393543919475572 17.87820693796925 17.230110535382615 16.076539308644826 19.943276177184757 21.394522840122455 21.822155579304138 19.867808630529264 16.158116574076494 16.187301534883083 14.392838042142849 16.48530707883607 20.636781535856652 21.65563650103081 20.71145240501902 20.636779738566624 21.003254294916406 18.18577599508897 15.534974631364296 15.408734245784473 16.14633253118355 16.19358935725476 16.261155251783926 16.791482033441415 17.339686134603774 17.268644236645812 17.10249264532495 16.025658310963056 15.88670049763298 14.847026778069054 16.94749819553555 17.02291097062426 16.331624675014382 17.40082003615539 20.071416691350304 19.209803198598813 18.057908770692386 15.876336897841144 17.476602131038753 18.7213734671803 17.401162527343864 15.244316076373812 17.034368732821935 18.383447493969523 19.53713296709643 18.976951198456693 21.977653369589454 21.79971749734649 21.17473945837685 21.550682730796964 19.46041448184238 16.311058033039327 17.926321978464657 19.36976257545081 18.760452667482813 16.979203422639603 17.632899647364173 15.090360163096912 14.072690641249801 17.958578234434302 21.240171744977832 21.40381046241348 18.69783682006305 17.47492282517049 13.771808028482894 12.665960464707819 15.205321428770796 17.331155247685437 16.389158072870732 16.260557578865594 18.894244544926888 21.74428452690947 21.991404745729245 21.16600750131696 23.082843608523607 21.567139005266167 17.618325243769718 17.68752483146249 15.848027369393911 18.267363460557085 18.636595131925183 15.484970848300875 14.049524097618045 15.57779736935282 16.58189291962878 17.30511283009951 18.034994896873012 19.929479733375917 20.942589984286677 19.08023254268465 19.023125077681296 18.879882319130658 18.348231496052176 17.33683750402698 15.386159285475923 13.946483150559056 14.185563149579531 15.158663291604178 14.049320396477789 14.836214518257243 17.57525698149116 17.394853003268505 16.87850707432635 20.25042224387933 21.319285891089578 19.70032818353432 19.323680072364304 18.177870083219837 17.21489894605192 18.536946610357354 21.278756036163376 21.644643784086874 23.401596622011755 23.378404755311795 21.778789819653575 18.36832473082851 16.675679258945575 18.4260727045387 19.57566420043043 18.81316033304516 18.008675879823745 18.837423260019023 19.954882159015177 20.980796655909245 20.83087981695166 17.357636473048025 15.709370110010168 17.29259336163228 17.988442992760163 16.027512916224445 16.2206589934189 16.601414023353406 17.35964827014574 20.296258022186663 20.734198146496425 17.72657854142727 16.057512765193607 18.586580270443253 19.25663433165663 18.05037908658632 18.674466904263166 18.8728652318464 17.069108453815353 16.485880638935402 19.022105688862855 20.40146453074354 21.793437292967567 22.248327541596154 22.35212542602363 20.371958816170714 20.07191313992893 18.246703835091875 18.42014516151031 17.369080938560366 14.421456880264405 15.056113971301668 14.268333217033273 14.31817109644652 14.279577184082923 16.199641286308818 18.36486724242015 18.306750633650346 15.60506265260995 16.28083860667483 19.983687846846397 17.657722433458744 14.38185844696731 14.941097630364066 16.904085857135218 18.55892457254122 19.200009204426575 17.989857634093937 16.59317907758242 17.898667364107737 17.875598365631397 18.121954115992057 16.98970314672654 15.376765468162848 15.563208879258882 15.422053700295582 17.009758229860715 19.88596456183042 21.74951094642553 19.92548548824841 17.802973547987797 13.878520749948663 14.40282262567445 15.187442206670632 14.226716614413272 13.131978022248877 11.40047542455212 12.966659260939084 16.33044034742873 16.910562333110065 20.326702522341765 21.66712405984761 20.90572151943362 19.200377704751766 17.03826026734711 18.512668480047626 19.5663629430619 20.10916342449627 18.330174395599595 17.371587984948125 21.47422913469461 23.356462200528618 23.807704150325492 22.048518326051134 18.198935452520043 17.81905250512597 15.695667988239089 17.54931718426469 21.423509322795493 22.10898017786607 19.384859279087998 18.37421119462326 19.97269460052846 20.806363715347075 18.53678973259656 16.474724735589554 18.454491168148557 18.824283293842832 17.66580038560216 16.001701270121572 17.610106437638095 16.180237186522852 15.052228928145512 15.232148428746667 15.646079301549063 14.7397163785859 15.248124978371688 13.813435975886481 13.57395176817602 16.449758322688645 18.789634783824358 16.853197402717402 15.595874354970954 16.176747315967805 19.869706540807073 20.899161196967693 18.607564534784707 15.385900000468746 14.762027172666324 15.373709431323986 16.782615382680106 20.333337677847194 22.314027293126674 20.388000910722475 19.142557902283016 18.52703825210722 18.577586352808286 15.128817082678793 14.816434378235106 17.997651003582828 19.96624018007894 20.591816417626823 20.346246278917587 16.503067277042252 13.752992482283219 15.713441025684482 19.6275513643963 19.172153317027522 16.51625168165716 18.47111705174366 16.014574227372616 14.211868271243542 15.946460025205715 16.34473100876112 14.923927178846633 13.70955848310762 15.43261716722758 18.00185468789629 20.217095566463346 20.864169639017497 22.830573957820704 21.699859947705352 18.50210445089075 17.34059625687991 15.131788474710262 16.092730319937456 16.041016419180817 14.923581259081782 15.20871745374916 18.325305558534286 20.251337565648903 20.111052970897727 19.95219363625303 18.104430249469626 19.298987275536064 20.0213625349071 20.47920409317228 19.20373364214851 18.317015825991415 17.1354381954831 16.556895361101652 16.561065981149998 16.632331118205215 19.37648245046462 17.468523051326944 14.18339779217922 15.624473780968149 15.038688851083633 16.805369759480534 20.856052556553323 19.57590386218171 17.11027908146535 17.876530331812308 17.58633870838899 18.310653331854823 19.07110569589254 19.559312777421738 20.163325722707764 22.82096133135092 21.052028105861226 18.79459633778998 14.355015247123477 13.628020596883923 16.739977356615285 20.17693565571865 19.56590169750263 18.674592714096192 19.249773940756164 20.07613935147834 18.652139553451462 19.43794481643729 18.02151631474605 18.373540455295306 18.915137786220928 16.603160580838217 15.117997017484926 16.276760413074506 17.481099720679325 18.35518198832072 20.51697587608879 20.008074437176344 18.66918280361094 17.224959276506116 18.62301822760742 20.92371325771055 21.204451503364904 19.86446620670183 16.67801531800671 15.115205718335401 16.81991845246729 17.28221983514618 17.19018758117949 19.04880936292727 19.770404247293257 21.07706479693587 20.170177938239622 20.171354380358494 21.279739945308474 21.73581162953382 19.147273067298038 16.045037806619916 17.216259553610822 15.903963854988662 15.878692826367285 16.637005500647614 18.36883926522147 19.547612922866033 17.94133226381886 16.11118941365047 16.849135090338837 20.141319269056037 18.357580089570718 15.044484649227156 14.716889952775123 14.10662599928404 15.064926828741074 18.49778746546755 19.275186602220565 19.10941605523284 19.140263613569598 17.356263577816115 17.139053939869747 19.47323679122373 19.39484715054047 18.399806888130968 16.231809233609177 17.61021281958244 18.89679774299799 21.259163734953166 19.987048179757778 17.33423845505722 13.973548153221575 13.022611545820423 13.01786186292941 14.160896002791565 12.330867441770993 12.593304579347544 12.539673348341132 14.523455310990538 16.574712026172303 21.414077829991083 22.179090731207552 21.333467418050418 20.32515439678873 17.26181192089069 17.698731031716743 18.338628901568697 17.866275496059203 15.919136490733495 15.161201930681953 19.07378814761017 21.827596690888267 23.724346896573124 23.317809765151324 20.009191085529256 17.522665732033236 16.236779874534797 18.01355734938043 20.521704743243397 20.62196175102819 18.702714785489015 19.808798215560792 21.397161439400755 22.703477544479863 21.657850766981444 18.431539368437782 17.100552140390636 16.068170021442626 15.484268913623142 15.150641973117706 17.001634214754027 15.521818424729707 15.178743957043087 17.028301645779024 16.89738166167572 17.502608221505145 16.16575283177651 12.339641248789121 12.071730434208051 15.771528600697975 17.396616736428754 16.432153031670914 16.31710827432905 16.63358073207502 19.838364478804817 20.329981221744816 17.46014466852249 16.230090307634413 16.014253344640576 17.305281265319334 17.255823511723037 19.96229551728932 19.63646319438299 16.920734413364595 15.872819083132264 16.8340332089796 18.626897513981255 17.474126917696868 15.25710175837894 17.8447744932935 18.976389930020723 22.007819550010936 21.738892910106056 19.130346981243015 15.999661145545959 15.483282211339823 17.679195886053588 17.960104508538688 16.302999337507092 18.723195000960313 17.402898441034417 16.358588575565122 18.46419332083221 18.605906541044654 17.98390751552416 15.5872329308859 15.602253661768257 17.569359363947743 17.91075612756263 19.85749447674936 20.713819882619653 19.308584662062245 17.406973748132277 15.398783989235989 13.748665592463501 15.051007789447652 16.930141957837424 18.465363303357822 20.019906106017043 20.97394533672156 21.756770325564624 21.765807006898925 21.5173178284119 17.736268360082278 18.947748412657525 19.442197346529127 20.853285727203577 20.935607042991744 19.7515077158148 16.93146564108906 18.82206004065452 19.51692401134078 20.04913163146576 21.520618486118366 18.49681978760314 14.592562031203936 16.692365113068856 16.305265215488998 18.509294137929928 21.29039451126837 18.782100191314765 17.185344827045448 18.01822118267371 19.55910735781113 20.521931880410175 18.782328497461855 17.921725726286162 18.127605068172112 21.686201501742794 19.378261358057046 16.740241953528823 13.73278541434341 14.517013716648451 17.40348847452954 20.929384879647554 19.91348483415054 17.475811087682676 18.92764763812671 19.529661841875257 17.305477053337736 17.613901534046644 19.847180955703887 19.847133848563796 18.442583976552445 16.671301463800265 15.009969487746071 15.880508873568742 15.730655034617754 17.496808251211597 18.868594273588904 19.593124303739696 18.475113071892714 17.010814031410856 17.789962812627714 19.422626073549573 20.703311455040758 20.53834042901444 18.19233464210835 16.02473771183929 18.1362217306661 17.311532447617576 16.39085737531625 15.933982163439913 16.0521348812207 17.632656014486567 19.134400328100273 20.158729497056576 21.067560764452868 21.12422449131025 19.29888937323606 17.230088905798596 18.06706676057559 19.021684786397312 18.108239585603663 18.719017843010786 19.199967266955227 19.98648904103968 19.218941307826494 17.847439379828234 18.125269901054494 19.569679229897844 20.46326558701709 18.550194720528705 16.922258281705307 14.026147484212132 14.48713952521288 18.010771800624294 16.93006406141625 16.50747428467985 17.31459583055233 16.65952987739956 18.515230074578387 21.49445291275673 22.14915818622184 20.161150916509136 18.242542049375036 18.73164425499384 20.565126614742844 21.445120997039606 19.836485559537323 17.345788828247706 14.527122058344393 12.68370739145791 13.275803414370136 15.533474767272155 13.882670175216916 16.41681012125247 14.936682091101044 14.592808834439618 16.669522543724337 20.649344948437854 20.881606120636608 19.9488985067398 20.376978267505876 17.857268177901084 15.958610887972643 17.468956420089523 18.32922462146675 16.5147640075404 14.839582064537197 15.414034123311222 16.994380065331793 20.41046931265052 21.27955235656659 18.715586544870412 15.619556969308807 15.321397608381142 15.604502306351673 16.331889594465526 18.023410610027344 19.384743989183413 20.08165621204356 20.034612001314485 20.3109969934725 21.50248175843276 20.00717289413529 16.132680978475292 14.794936490509293 15.544754331483675 16.438103846398665 15.560388531107774 13.54122382721638 15.41112091098214 18.353473089310658 18.053016770528444 17.945237990494622 15.377243234163718 12.005494186936616 12.645877442786386 15.456576842938189 17.117524955490282 17.904720104898423 18.524766776277495 17.338123862928374 18.626361307097255 20.185644196521274 18.35126593674721 16.044874640036415 17.758047122904248 20.185522321591474 19.292561570787694 19.556887230685508 16.529410023214037 14.955431196312185 12.823281210953326 13.752924669169163 18.052127859644568 18.39916378890221 18.035043294370535 20.12291695764087 19.01350742367945 20.902470307048368 21.0833980516152 19.899690907249006 17.304249320524804 15.919327844753514 18.52063260129368 20.48537476245596 19.685762863820923 20.3427690183482 20.036708758969855 18.257801446416313 18.098129369335158 17.69858415054019 19.348128160566603 18.426354010834604 15.638058594231218 16.14353757245949 16.877146328731097 20.233892445392637 21.51713674241898 19.81774133022714 17.99086069841071 15.814958589952935 15.5446421220304 17.486858980514373 19.96237230783759 20.747959253892684 20.52333494906808 18.62835828679365 17.617711820715723 19.141543800438708 20.549831708289794 17.273411909662 16.840470636145152 15.781487908939358 17.10281015169896 19.226307975552313 19.111448046057614 16.919504137432984 17.460508258539164 16.14008712523849 18.45592294698331 21.038310548115692 19.02841488189387 16.09321130954401 18.34986377381982 17.154978434783953 18.183650941211983 20.54290519892986 18.78809983928923 19.936401393021374 20.715216398933055 20.60194018388557 19.450778378011123 16.070432201771013 15.799945410914434 17.116466363911208 20.33880258523033 18.449138346119486 15.486396839909604 14.00534871446844 16.20213681118219 19.21501292047683 20.167080697225746 17.937145551903814 16.809267368586397 18.76831458389227 18.83260064419866 15.871318888496269 16.437074596248877 19.18961856330209 17.046447112813958 15.240299357710487 15.6800813017442 14.646063603190951 15.771040396829639 13.539557487182892 14.86116575057061 18.915257314960062 21.48800222716042 19.38731696673674 17.92667719042775 19.182554843916876 19.232562789176697 18.42274308974768 18.70942000462599 18.338386785917084 16.523094426324832 17.197471572171512 15.795441241917102 15.677938661466385 15.763634143140015 17.156099643939452 17.663756120868953 19.771948894282385 20.151089682129317 18.051164292676088 19.075777277141068 18.54355789595564 18.22420142676004 19.39239122427584 22.332570874150697 22.570501063737034 20.675593406305847 18.706700774774244 18.015142273228594 18.497953802353287 18.909943558977236 20.201515218100806 20.55958729860587 21.455423183215096 20.41910394086284 19.550569664047707 16.329404005152153 16.300901228079002 18.159067607684015 16.15422332744362 15.960701235716787 16.32857302556085 17.89451701025745 19.577792714625353 21.011718040259357 20.072497889350338 17.084286558582242 16.44826136277263 17.609580743817382 18.79520245651673 18.598847611252147 17.83866204130585 18.690821892722514 18.57212801961976 15.579803905012547 15.167367578787845 18