# vtk DataFile Version 2.0
Ocean circulation t=70
ASCII
DATASET STRUCTURED_POINTS
DIMENSIONS 200 200 1
ORIGIN 0 0 0
SPACING 1 1 1
POINT_DATA 40000
SCALARS temperature double 1
LOOKUP_TABLE default
17.1369817573883
19.504917180135
20.43083435418156
19.446324407739862
19.026935719193585
17.440877866436942
15.66516233025789
16.344701429780223
17.647734973369293
19.18386576855752
19.358550710141046
18.499067663166798
17.99956511141038
16.00925058795203
15.63262054879281
16.149511192542136
17.03461962157004
17.001819616157228
15.941244043227126
16.572361190164735
18.335244339765147
18.3551173347917
17.62300327155045
16.710340708689106
16.30325156213835
17.821998423472014
21.181455497369804
22.24937531608189
20.930700434308378
17.275761032657847
16.672499891138102
18.155224503397207
18.78122317911778
18.914663210995137
18.299016792301288
18.243511199593534
18.321616018007102
18.79458590454775
19.704605170513112
18.548645665307966
16.348383864143823
15.16417784404467
14.959632211880255
14.56366158381939
15.325664474040856
16.338799155743953
17.940103767326576
18.380861538710615
19.12320985873345
19.50504849306732
20.91824520453528
20.97819727764464
19.075118378611815
17.966154552394716
17.768215322899323
20.277882781583525
21.240731810869512
19.399414579230772
17.850662582732085
16.949427747729793
18.60652409361876
18.73253083260045
18.02606711824218
17.647608330350966
18.582000134801213
17.323384043128232
15.125380545625564
15.280423192163362
15.41327300293299
17.289760514543293
18.00333081065816
17.88261686488213
17.88452327713229
17.39221042011946
17.98863789778239
18.366217572805535
18.72375548104621
19.61138377859981
20.259856003404565
19.924843655278462
17.91995941349543
16.92332011399098
17.730957504356834
20.59134595128143
22.25810409374423
20.805135963559163
18.801999930771498
18.39785596174441
17.400537100593155
18.51864246891429
18.335229676641227
17.522780755900257
17.90555667094944
18.224628095940055
16.108551642766024
15.071554263989572
15.621834306464077
17.299692594276248
17.786806750419583
17.573069283003452
18.211098711444095
17.558988359181576
18.127076385636045
18.290805724788246
18.085427574825673
17.182245768630995
16.420581756038242
16.612017726133843
18.28783697248926
18.19971251340162
16.872658161620574
17.493082244260798
17.561796269681267
16.966057819455365
16.633341146878593
16.816891899405263
18.132471338608394
17.484570249702458
16.982647083236753
18.52483635516335
19.01881871321707
18.057860106367507
17.444533159017723
17.23785166284903
16.299484388853564
13.978654425930328
13.298029996013412
14.96601316424236
15.427895146386435
15.487488731710318
16.651971326668452
16.212764472181288
15.978508841950413
15.241253720685817
13.402517606197309
12.678671232521978
13.484524477870272
16.14392442037971
17.39506052853718
16.78581441183228
16.19247509941204
16.311885864400057
16.178440336016653
15.908976518508469
14.409253431887738
14.240571139309882
15.947594758778015
17.833398696439016
17.920551102212045
17.32695422500645
16.747144795171423
15.87907844706741
15.86472510445637
17.20861787090385
18.566161703903997
18.04406288154002
18.41863213839813
17.992837340375758
18.416140414877425
17.50097186199944
17.50139289523627
18.568711518614762
18.761152798238665
18.355954651756548
18.22268013745539
19.25682144339114
18.980770596704936
17.42479541168927
17.09469041290047
17.274285484227754
17.13274373312912
17.214551561568896
17.413813668695738
18.228729865638353
17.634897488746557
17.563263626756882
16.940503077760894
17.03277153039023
16.6645747460177
14.645499895271346
14.72910657790765
18.338844453628287
20.95310059604511
20.351919135225145
18.61988972415632
17.702310937021
16.81400987121911
15.098252779568375
14.012173651237914
15.879468997803635
17.296495428947924
19.94122941835333
20.706491097047714
22.068677471756093
23.20615091348637
22.285788108227937
19.922577336757634
17.96542565433244
16.921060207785036
16.654288633165596
18.413004851706468
20.945594952170946
21.41847130835823
20.34255981793775
20.51311521588819
18.65872534506861
15.963453854897443
16.27932839403681
17.555222547738726
18.61087494956136
18.93692778508313
18.49773517341395
17.229654894056186
15.406802789288093
15.288505016700356
16.18667204547791
16.648561438809057
16.987833283997674
17.720597337476892
18.885837773259748
19.416643129807724
18.20756323958346
17.307776336707445
16.101947257080305
16.149595769077997
18.374270989764568
20.733679049410362
20.603846120284185
18.9174875152076
15.872533064769467
16.23924459533557
18.636149212144918
20.23398707760224
19.763747469108065
18.253146326581927
17.33533744203761
17.600862104589446
18.875561292300826
20.366830065314332
20.35823453203388
18.696149352230513
17.258250169634017
17.03123334894496
16.495369266875752
17.55670415943584
19.636703736525618
20.748976855389206
20.064399812177292
20.465385040066263
20.76607694790954
21.753730275511614
21.64227071445009
20.037801648562407
19.041797559820917
18.22529254582627
19.60845046040634
19.63637267896015
18.24470040719518
18.350144730671463
18.15186098923323
19.401272614805144
19.06051329236182
17.90393222070564
16.648507206876406
16.933222230662082
16.3050336230829
14.913470452083873
15.849170020729991
16.12284594836796
16.984466563250706
16.70927594216142
17.004720489364235
17.98435113674021
18.303095542764783
18.93216672714713
18.279309920015695
18.3752672186134
19.092408564303494
19.815900986280095
19.62897474196889
17.499936365969326
16.3676861629006
17.316065478395767
19.117797691097845
20.024449810803496
18.759387259944646
18.276566571590294
18.649967508926977
17.32057623453186
17.776088891853476
18.368527392516363
19.70057473739791
21.175801712356268
21.301719506618944
18.706503084045146
16.910048211795676
16.48135251344286
18.516337789832
18.80089912829664
18.272573443673238
18.346368604736327
17.958575967389606
18.778512108513223
19.679103962511636
20.28141288841523
19.032682128860966
17.262918555613165
16.62062078977859
17.911015497673514
17.846601988197335
16.714725078405543
18.134985072938406
19.62687286535039
19.478163840873258
18.086366819038048
16.849664700236456
17.683001810019718
16.961815202417533
16.20118524367654
17.19207115761664
18.57106461765174
18.668090121488827
18.038034716157913
17.813544323650664
16.188784050747596
13.704262734502475
12.470454716172473
13.21869634521564
14.069012945577848
14.308997775771337
15.862724968801903
15.702026381827949
15.861741293551125
16.339311423400705
15.532857750476051
14.99911663443351
14.724946692083714
16.159627496240653
18.14846832076552
18.224413499820923
17.314242776199723
16.115442555117774
15.444502459457935
15.627803602204864
15.320485626926017
15.90717334788963
17.158833049426548
18.746268016448226
18.74756952702433
18.166664457212036
18.316727889098118
18.116374784429922
16.982635776119224
17.177845539452008
18.619098810042892
17.42006640337419
17.100128380424973
16.06650991845017
16.25979094873844
15.840915914239051
16.50795775480473
17.765200113752844
18.526520684885636
19.467429923435684
20.07452439481229
20.332473740642346
18.249401457148753
15.731815593410039
14.705677143192176
16.1407626052661
18.227162208242962
18.353686726478898
17.93081378216639
18.899308822678705
18.924142326466473
19.00257930259992
17.800224664111802
17.151785007066337
16.84927411195115
14.648193453877543
14.7883724815029
18.10139012156526
19.7156196012362
18.85756676284488
17.220423778629982
16.520277564956828
15.767116491374283
14.517940150689029
14.239328918075385
15.918704000146116
16.536575500044872
18.53803253415239
19.41633592233894
21.677903435650542
22.677568480371146
22.405671945869962
20.793092383461975
18.970315548637817
17.715852293342135
17.424591260169105
16.746182222905073
20.72676247686678
21.593400151371643
20.74716117156843
21.20930408995325
19.729437937291454
17.453426944824393
17.187159674917023
18.333426890064313
19.566816434278387
19.84407224950509
19.085891795769875
16.70916735479041
15.922534206698126
17.436074620146528
19.034900915448578
19.516338728496443
19.27053805740004
19.558402948487633
19.92037848074953
18.942230040330905
17.25892923017081
17.40250015972585
16.79951052783258
16.8710024844599
17.676990946538563
19.15886290907538
18.995856260218332
17.39497271706659
15.500823659072921
15.904236570705594
18.416076082691376
20.76778315383769
20.690746040097036
19.113679132219072
17.996040663584424
17.928761897750274
18.82823252484102
20.636693723596593
21.574883370104256
20.79773133501167
19.536427075135467
18.01526534890872
17.152555365644076
18.42267220663539
20.49528159245422
21.337315577513383
20.915786280740477
21.0188824619075
20.876335429745822
21.277685571387135
20.012216812426438
18.096439009711744
17.558525448412226
17.638646864452262
18.556233361713723
18.242743816289824
17.792595315789164
18.22695231780182
18.176280321950905
18.22394245931442
17.6469870382961
17.147739761309996
15.391123302344107
14.493579606565136
14.521093938765205
14.252191779744967
15.162286303890616
15.851830426269734
16.19417754121332
15.331059782738636
15.205611529927877
16.660043676666103
17.785114063052454
18.972915740790384
18.380671879969
17.831131215627757
17.686645284025772
18.985511951210555
19.8327073262824
18.53460750765776
17.18773220638264
17.801192491675
18.461749676344223
18.11141461217155
17.817660934619838
19.002798721067304
19.376894346360576
17.14255631135117
15.997429841372222
16.760540091559157
19.1703512942582
21.227288870156364
22.22117885167411
20.998231532847733
18.880835946887483
17.549240904041067
18.79443880752331
17.84638851079052
17.633343162329066
18.633677951648682
18.80101957704763
19.370470673851585
20.91541675249285
22.420684008071387
21.92796809890892
19.850899897200698
17.845776821783183
17.855282017466248
16.854712635127896
16.00655029504468
18.02420479297091
20.436308059430434
20.038140930859885
18.186517119627457
16.44413803501659
16.291048979987593
15.00988447788062
15.050437903706873
17.28520841733156
19.07489474317746
19.052982486552146
17.537915381443003
16.1999545864998
14.393524139420478
13.031148974796247
12.113724085330855
12.981810742020194
14.456079799455892
14.126448737982832
15.378379626810661
15.047901332229175
15.350645829260602
17.161898318140405
17.029297281198033
15.875891622724499
14.933209155362904
15.4927960864332
17.25105084355353
17.66799899887674
17.075123543505175
16.64657057297507
16.66901478130941
16.85560404430267
16.76493051868704
16.125597589617367
16.04712616104596
17.38064206891619
18.00857948804613
17.370129289339182
17.742855772914687
17.978007590647035
17.101339832012822
17.403016598621228
18.864673942242298
17.333178906174414
16.19993447946235
15.33588620800063
16.05592042175544
15.554534207013953
15.1841072141555
15.69725823542033
16.977244343149174
19.173457662207962
19.76083198952946
19.699463604091143
17.671782040181217
15.288585500027134
14.286128696834405
16.72750487632972
20.10382648708517
20.493460031810304
18.884469846824096
18.599353211344226
19.02863384114796
19.805191433827616
18.58941539030004
16.4290371493517
15.488370197207056
13.963735702972397
14.214856171668531
17.506656747121443
19.04021793004231
19.058977184456598
17.102866227929933
16.09400034253779
15.68020196286515
15.487815427784863
16.288753488188117
17.061081798634188
16.34835247128287
16.723327102702623
17.7194370627167
20.364928948503113
20.67471372658608
19.7415686077928
18.262430864415908
17.129860130890428
15.723044774015152
14.95204404706435
15.796371538114116
20.671092601018227
22.279699889330068
21.638417812522253
21.49108217971895
20.419740433369768
18.475744142452825
16.699105541103368
17.24403133456251
19.01311555227979
20.101456532704432
19.365320525503357
17.041804495857015
17.486320582202552
19.472498395140764
20.885456548050026
21.010382671888863
20.087870979609477
19.29076313454793
18.510038601335744
16.501154786606552
15.607398104442904
17.35784429744479
17.774399961075666
17.209128116793014
16.56181173817432
17.057402482865204
17.750976453957854
17.80617325561586
16.600656664615197
15.82408008347007
17.643643925349796
19.21542569314134
19.007767811787133
18.420397225015776
19.133334964184733
19.63839568626144
19.93101307077859
21.059834256356865
21.76736492958014
21.558156413046664
20.192648141418587
17.73231792658657
17.072881221719914
17.891885571207666
18.626268550973062
19.335884787180948
20.150436652229516
20.953538486573137
20.789915705898117
19.94942003105575
17.545298846429727
16.269360911176967
16.781514212457886
18.230748932723518
18.694950245474963
18.008824977881865
17.959082389282806
17.59103345279319
17.26790102699244
16.837624130089285
17.242168047062897
17.73895383696477
15.88110486597853
14.37447721396102
14.904206462695546
15.207768455728454
15.010263106816456
14.660757906682763
15.193826887169216
15.436672675622203
14.954233759985028
16.560033873122684
17.717980543969034
17.937973525509566
17.050017423906475
16.849175673225638
16.982503984554402
18.89832200218521
20.081098259023026
18.944088041711435
17.52192536937908
17.2377681126405
17.264993048031066
16.582699558265492
16.997438722809573
18.979248373176542
19.347806432162013
16.780214040226817
15.285627929907687
16.22565487381256
17.559766591908197
18.20615945141642
19.618591748693692
20.352012214120638
18.830205135008214
18.318672416093296
19.222589057195762
17.298521393348235
17.2223701002668
18.9497530007762
19.832081682518947
19.465267874062665
20.33667502423606
21.88220833775208
22.440569473676774
21.050748079380263
18.132176008598346
17.52254721888663
16.89202914892662
15.637677855320538
16.563197443842753
18.68568812570054
18.408090102145444
17.60995347930742
16.622005074219302
15.131610205599026
13.60546400290242
14.647598871846832
17.993565075201072
19.382337514667192
19.3404406443391
18.199247338150766
16.97433082200363
15.78033971066455
15.253480215161934
14.526968148133534
15.288559372601764
16.04022247102426
14.174684701987394
14.213036444594524
13.522693454278718
14.028049756209873
16.387198381183687
17.087384759739926
16.769717415846962
16.457727387267425
17.108401824075084
18.36146635113922
18.753508510707917
18.100061374929055
17.66803910860075
17.692478250231595
18.299748128529007
18.50251860911961
16.915378280541447
15.400533528173101
16.194822384615367
16.709925156829545
16.008521061008285
15.794720406243522
15.885394548372712
16.443780630202035
17.631068000781063
18.53391037655368
17.62669509891039
16.411613340840734
15.74930128268463
17.205308820989682
16.541490405763724
15.585159710937795
15.653111094106837
16.434259189634304
18.77989125297386
19.947788709961642
20.13588818742646
19.096620087623428
17.110331089511785
15.61024808340355
17.408861110243503
20.478464847990896
21.04843736175303
19.96764657647446
19.83878715049414
20.14422958581894
19.904557543578637
17.959948957217037
15.300445158689685
14.922949011505798
14.522840917201506
14.151634843411593
16.610508652949672
18.15217889308704
19.173359908868555
17.303717080087402
15.554013152208492
14.868394535970513
15.464474319204422
17.893010540070776
18.085512905357294
15.732077985927777
14.373500996813133
15.329267337863243
18.05957933691263
18.576661912034652
17.528795493576283
16.642587065472878
17.01493424073526
15.478362207745143
13.741717575055588
16.597285962096063
20.987544213164856
22.58175153749586
21.42981225984478
20.261806619088194
19.30356449438915
17.708005706629866
14.259201498804526
13.599674693306204
15.729503256860067
18.403595897913466
18.86445515957747
17.735662551460734
18.56633689909968
19.993957683171086
20.137550840599204
19.542225507033077
18.597442173245025
18.31937519373758
16.99824990355442
15.087136100082361
15.173644973530806
17.517182815422505
17.925474877959143
16.81864936487977
16.895353394723273
17.686655246208176
19.21891988803658
19.755029748515717
19.085534441034287
17.817472739131123
18.905361143234547
19.43601565223591
18.921980692140785
19.10645458161201
20.13161978506245
20.74613033699363
21.00260720433704
21.108197759322078
20.424945537924525
19.98050229321136
18.212605524430824
15.700659922869727
15.780540993751943
16.601868091213444
17.065803271419938
17.820161170026893
18.737113621399182
20.196567662146926
20.23407891965184
18.357475801455095
16.225199790966272
16.830634278657456
17.943411253182635
20.117244537658696
20.210591984437553
19.048873796759626
18.71947248266802
18.09521906332532
17.466766845015545
16.71125087406575
17.844571565249783
18.21904056180116
16.58151056604126
15.690393349850478
16.34125194807806
16.269163271557666
16.13257079633108
15.701829855252925
16.019984365417294
16.41571759981176
15.433836210658693
15.875849565450109
16.673357755215072
17.01991854745079
16.049164580802284
15.33760869497102
15.413541817386731
17.454320925559827
18.416202678835315
17.15595540952967
15.818358840338155
15.284117465652205
15.911664006094826
16.42995700963231
16.78516650550926
18.172598214019935
18.919756469957292
17.38850485138785
16.004654928073514
16.505531857549148
16.574168954325216
16.16286220983178
17.144255492187774
18.898034868019998
18.137480535556538
18.88513231645968
19.904685716296196
17.969395891500746
17.668795236556164
18.970507557252603
19.63374167948875
19.114588846533852
19.26009519287157
20.083768166421155
20.68008981271086
20.521707536227726
18.315268870378443
17.83951870414039
18.32262146521738
17.18441931024443
17.00646208425557
17.513978604147255
17.20312463474559
18.044088059613962
18.285302270780548
16.338838169042027
14.788050369477311
15.60985347402541
18.03313917425868
18.22427163871968
18.10719160472204
18.219963535572145
18.525397938713514
18.297729938902048
17.509317021617345
17.442523414137565
18.25465515133227
17.76098027202772
14.505897498867817
13.349069191513728
13.685860082861964
14.569170916318853
15.906439624882102
16.30332964718888
17.802994187063966
18.588471910268392
19.15577858045966
19.06257752301702
18.56116301719983
18.41234714468306
18.08900245376854
16.95663015975519
17.783914877442772
18.976363560430926
17.35516174388614
15.560402292312023
15.485050255676983
15.854548665899411
14.475862216051997
14.238226360077727
14.992233911879776
17.039331880780182
17.689848023196618
17.091542421271413
17.25575761420689
16.40474188320794
16.74993462253346
19.19560987985351
19.291777912257857
18.407265028294677
17.741731459259587
17.09185420227712
18.084472685980916
19.323109870290786
19.510935488161426
19.550957760567456
18.51549723720817
17.176565118993125
17.933449279075347
19.031947482418115
18.325632458616408
17.81777220613324
18.9914571309277
19.634223663179622
18.957284404777358
17.144547883719316
15.586782812225174
16.29225078285286
16.80015311212864
15.606384033274182
16.95522517316938
17.913921573667544
18.798220979163695
17.73562496159692
16.499173851551845
15.386515891238169
15.68872016496002
17.653137564805732
17.350822429824944
14.713435863203445
12.827040435115261
13.459110185893149
15.62012188512373
16.410127382139095
16.772768341669398
16.344310177645152
16.71234536405449
15.345862707610136
14.055373844461812
18.387715644366324
21.382190368305675
22.786264530384898
21.963077435770845
20.459463205824026
19.613227313363893
17.97145611033
13.474747800393628
11.649015489769447
13.594597840177412
17.328620933021636
19.649164512897986
19.62040219268812
19.896792167912658
20.238832775505145
19.06792157242116
17.370953477763628
16.618107715571583
17.237352212333786
16.07766373338729
15.133399907503902
15.712741750443326
17.511105586138317
17.05375769282681
15.657465183378722
16.437919150125637
18.07310371510441
20.17112216305173
20.654209324892527
20.380687094689353
19.395029888628027
19.84412669976421
20.111683444541033
19.569391650236707
19.58264140607214
19.48864179241477
19.488754271247096
19.49049533074366
18.927546958824603
17.248240351254324
16.097801880215382
14.736341200145116
14.269227054532257
15.774642346245768
16.661769915237173
16.330875017712085
16.500872966604476
16.709327745656534
18.95256906136863
20.254992231900616
18.872851076374253
17.04870602719707
17.92025814186631
18.409127395230787
20.153954824837008
19.85198298496806
17.89598179230497
17.32581632634902
17.704077711966775
17.927501943756436
17.085693351837794
17.518348130867903
17.207360993119767
16.192669276900297
16.513210528958332
17.213099482194757
17.229044480987838
17.49304649992604
17.986869431944523
17.952450911746755
17.953209934921073
17.179358915346093
15.912079728511245
15.170812141870309
15.245618544392208
14.69231315284702
14.579061172667727
14.391065680621717
15.326001634462644
16.1655756403234
16.536654186074465
16.718633187261425
16.114888581277643
16.964003789007922
18.639965585851314
19.051203536410032
18.711571084733187
18.94269563975574
18.942846548369676
18.616345544253864
18.69115671067457
18.13450056741523
17.41514188221287
17.67522725054365
18.867065164888835
17.858313940644635
18.57785933679888
19.438108143831176
18.058380840020913
17.228334732981715
17.008947460642982
16.60274857628406
16.580709344803555
16.93008973642009
17.72899356215154
18.642900800213496
19.46489252807053
18.71793072974649
18.49223920751997
19.07988979493863
18.653996469962514
18.917574046945482
18.772800315697957
18.056299655097025
18.853243824135912
19.087848492333016
17.806187317950744
16.733465242065787
16.72439124130421
17.707710243742355
16.94693783654199
16.41924186552912
16.293285300901733
17.719381089283523
18.93145751120542
17.65672885574317
17.612743796157908
18.663964653510764
18.32897690380983
16.041140305542847
14.93651702403724
16.040483887371625
16.33034472729532
15.583743933903717
15.04776693625805
17.181734087593046
17.502219875558318
17.23898907445149
16.163518173711665
15.202552482085755
15.680601403912405
16.929443502339854
16.74532724502144
18.098412654591822
19.425046521472016
18.681698586344492
17.027306453743854
15.383061401488293
15.190953196253433
14.074592153632356
14.782245006227166
16.177997147832862
18.350857703943266
17.875613725032498
16.16929078917219
16.77579651390656
16.761050072462613
17.5426273235701
19.60031675834209
19.6434270346035
18.973728234336303
18.712983456353932
18.175043888711187
17.44227831219599
17.67462097741143
17.75794921732097
18.708813818691308
18.95518247764649
18.001683573861698
18.042666340635673
17.332116154358708
16.177636445069293
16.230215221316694
17.492237178361247
18.8043955043351
19.044103278446215
18.5191470848292
17.51843234057395
17.189800965836334
17.750113896243867
17.339087540830125
18.96149594110607
19.206228433644785
18.583842429229485
17.84443586881029
17.507799638438392
16.535993046044755
16.508733045413233
16.457436991828104
16.261402334036415
15.092466211505878
13.293246055961294
13.495611126376918
15.475048263043668
16.29981221715331
16.79823390359288
15.638949268357477
15.479322721915164
15.12788076213002
15.57944788875438
20.35421290908023
21.647050612680136
22.165877528739372
21.57461259496188
20.9547874200168
20.926253223715463
19.126031499130843
14.466290245984935
11.763434180569408
13.280828304018021
17.356964449167844
19.86404457631342
19.701718130354894
19.395308921645572
18.803754351986473
17.066443511166852
15.737100382467876
15.909931307557908
16.669335719506606
15.969757529683768
15.201603595201354
14.896658477019644
16.378637294789026
16.628744479323043
16.31401603099484
18.065622837046558
20.06780079328195
20.84098869310879
19.960382263823583
18.84166259307193
17.95646409874526
18.003007935512343
18.47145132147121
18.150809632177726
18.41353343153402
18.556605071022865
18.352761477027105
18.40943232917102
17.35519145921802
15.597435546923075
14.334433731522505
14.175161725217167
14.81816259356996
15.898286301679793
16.858496379685924
17.12145148306966
17.50435835890163
16.264128874266497
17.287953849256375
18.767012107422428
18.913162595674002
18.517669967072656
19.11827663464978
19.137150478542427
19.590675228264505
19.395606005762687
18.202080413470973
17.22888865326508
16.942958390877457
17.29120813847069
16.97590863271376
17.242503296441104
17.65345029034346
17.450886619144352
17.5823562186102
18.10148958068912
18.79493953663253
18.737927292632975
19.445970782247894
19.86217637952213
20.35459915285497
19.731213621808866
17.469551112321223
15.383432438127187
14.284040948833965
14.25160582253075
15.216165232385308
15.074920319136579
15.152920058213276
16.275364658428764
17.517170308841965
18.143605823334735
16.949969611423526
17.816613094863257
20.634192975824668
21.3456869441658
19.80823771586332
19.03034877767853
19.61854245974108
20.626714948276508
20.92888324659241
20.262630228511128
18.944146886835643
18.633844634493112
19.422064533183725
18.502896224264006
18.575688938753533
19.25790725513303
19.191931016327626
18.949156237045447
17.85139170950042
16.41950649186817
16.378838707241325
16.07040689708597
17.07421461345557
18.589880738921945
18.879198534385303
19.02568652489644
19.81945530171071
19.692187178932517
18.768111715450306
18.527853651769895
18.590945423271705
17.797808398077105
18.01527157490619
18.489604662594814
18.341641394358284
17.73680185100257
17.295693838562656
17.278214042922116
16.909110873030578
17.040110553872545
16.143653171406207
17.0488372628987
18.995490034472713
17.71297758851701
17.067824735146846
17.49853604146073
17.209628892328208
16.85687198143371
16.317462068828583
16.910209875038017
16.880124416190174
15.812836205718076
14.527626986545888
16.52577906861403
17.242500082297187
16.75030097976201
15.66005574831048
14.626339207207879
14.957562594267417
17.02749045544502
17.381565076224817
17.75794191166984
17.719112794070636
17.410602967587007
16.985444865887505
15.933722256955022
15.798109825180846
15.195581141055564
16.247997076260177
17.17404461036219
17.7350155862849
16.12511140458605
14.630279287334975
15.310717937591098
16.117056336785144
16.761516243491787
18.460449231662324
18.03143456559808
17.48640980762872
17.452535148551434
17.773045999030572
16.447042267189538
15.743164775613359
16.476158151768754
18.32133748498008
19.56028515897248
18.42790591881476
18.26857218767573
17.075775394442804
16.160495344432324
17.171676859254198
17.231518329061366
17.822352122790406
19.346005216453534
20.417862751262586
20.029018908916342
18.363306839801325
17.528555116079403
17.69885138786399
19.527598268602535
19.99758181915118
18.721023528322046
18.407244248149286
19.66037395247965
19.685790314827603
19.081257203788926
16.824483964183013
16.644534914861303
16.508250453628538
14.090170844969085
13.93913511879508
16.204122014546062
17.405854678246534
17.883703727655874
16.21715514331307
16.25888573147292
17.353447154568283
18.650742117854293
21.314233833811855
20.94985293156479
21.244001889389562
20.92515313227152
20.722906990785205
21.248860112865852
19.53448969414509
15.478414779003582
12.600182994011465
13.772108259372635
17.4224836926474
20.42914716961646
20.30101123520949
18.862886768354215
18.345269904176465
16.76041205469155
16.198098170316207
17.165676190488423
17.83612740216953
17.068980038146947
15.240490182988768
14.172975407805854
15.568830848167114
15.816453146866872
16.207496979732696
18.183262964135707
20.075750877065875
19.94426125522755
17.936050512666338
16.706341143762028
16.450068829667796
16.308285495030766
16.31197696468891
16.773308623835806
17.856240839515614
18.568495543474505
18.269708510895676
18.77199846728915
18.867693096551935
18.268792319924835
17.0228439311116
16.635930991438595
16.50441079117278
16.32664056885455
16.386543040043573
17.374197481048203
18.539584336687984
17.342882294145536
16.880697403693404
17.435662184952047
18.650667120585357
19.441216887616722
19.816835919689467
19.520088041787336
18.687887180918587
17.784844014394146
17.782403259878624
16.781235569062513
16.24300195299209
16.217455014907912
16.688311568763798
16.87852732844256
17.69307275848603
18.338900231617842
17.462692136238097
17.25172967643521
18.122010813253667
17.228852086556863
17.25340727138594
18.032810352337087
20.212981281569206
21.199318590715553
19.748421292174285
16.886924090560907
14.86563228100814
15.027528645878597
16.717941882829592
16.87684300440272
17.00109510348596
18.364730703701607
19.30992222767038
19.39388514910216
17.806434106149542
17.538411669780476
20.483580958365565
22.006936517603698
21.115655364344065
20.42510712434376
20.94081114967224
21.671412576039984
21.580508936382415
20.35777132700544
19.47884860554263
19.703676232113438
19.71283354692179
18.871936822882482
19.268457726593063
19.29645844094682
18.956045282090837
19.138562203273764
18.613096297512886
17.366417954932597
16.656378159514876
15.492043571445862
15.862378984039992
17.53995742499586
18.09446972353043
18.860333017405917
20.278494320570125
20.23750887307596
19.22642980094344
17.81550204851436
18.19012334413989
17.736299390312286
18.364675453697163
19.063126068666406
18.62942221059373
18.51266430318327
17.623825067332227
17.432486653680208
17.91707096553717
18.273033342793905
17.32960366187713
17.858056501632085
19.899885465578794
19.536981221860664
18.56152727202738
17.710985327758813
16.89279912986713
17.248160968095032
17.131714563575347
17.939941504340176
18.622760968718765
17.384751029761173
15.174944733670122
16.58273226323261
18.16651565800431
18.629502480366863
18.88923768142096
18.205318790728068
17.229576286203283
17.258564568350927
16.430528105543118
16.672377348183094
16.881336270829685
16.418727908037805
16.937890707405593
17.255122433889902
17.242391836818324
16.36664147077195
16.98522805219008
17.685581224359993
17.151190017518935
15.337844163839314
14.29576491321795
14.807976326455199
15.304115710826895
16.473871176050114
17.86286524779783
16.765740388885963
16.393063032316483
16.87542542684239
17.93243364589447
16.867210420837385
15.415072332672388
15.663966469054348
17.35325912851571
19.44233308003575
18.943619342620373
19.212773177323463
17.82157515810169
16.45541393439933
16.708491011435935
15.531559483469804
16.218064734565694
18.362762132449358
20.63627495237656
20.981343406047323
19.341117789568923
17.17371483286469
16.674028594701532
17.270358588606744
18.23209979989207
17.714891145018196
18.71867985640354
20.979546325411714
21.9335009425761
21.10225925779665
17.897841313337015
17.644053883321824
18.14797369723641
15.852929882996413
15.235978432310626
16.201884562078593
17.14810311268581
18.008474410103883
16.73946373383478
17.72242093552129