# vtk DataFile Version 2.0
Ocean circulation t=80
ASCII
DATASET STRUCTURED_POINTS
DIMENSIONS 200 200 1
ORIGIN 0 0 0
SPACING 1 1 1
POINT_DATA 40000
SCALARS temperature double 1
LOOKUP_TABLE default
17.28683908743628
19.365418021479517
20.307529404464358
19.581269505381204
18.962381143845047
17.45137065235938
15.929536375493441
16.4006736428023
17.645834198947746
19.014375288066223
19.18577631498148
18.455308217381717
17.84176756287662
16.272837153420433
15.939394790729164
16.37961148608927
17.090281955194865
17.043568346712707
16.27420357890567
16.75424307456118
18.03349775815608
18.05145999025224
17.451646129433062
16.709539528209255
16.52175849688168
17.984413082236866
20.874507862893537
21.895717968921783
20.651930150163672
17.604487977184508
16.927052808720532
18.140365140527866
18.858884132433026
19.00607857878332
18.471760341512333
18.30410032505178
18.41132001170595
18.89045633934626
19.520312201087528
18.476879103730766
16.549657925529768
15.41961060558748
15.07280925989303
14.727428336570522
15.340110263591521
16.38636685486619
17.86851666397388
18.534620407886553
19.21388345400403
19.585290347342287
20.66749127721675
20.618814100147976
18.940437637673472
17.890025572436574
17.894486876018526
19.988207556746904
20.853276308951678
19.387664343310195
17.91534655734925
17.221313491082434
18.524905359449157
18.72689055025375
18.11686392116205
17.721725601749977
18.2387152188895
17.087916160863138
15.203468896142866
15.175585964767155
15.532716628497408
17.137689243548973
17.849694026457453
17.81967253194526
17.833133240537787
17.515882794120735
18.095385528387954
18.480907586142767
18.805119554854176
19.553288644870566
20.10130747196673
19.709818822546467
17.970897371939103
16.998040336060683
17.801809512075053
20.332912212158565
21.834225397151823
20.675923261454834
18.930538563206806
18.31482422683289
17.4850686032492
18.21456962626115
18.121226131594707
17.609578062977324
17.970894746898956
18.094630595429905
16.350837530030645
15.429148382002767
15.924731567955071
17.29911861766583
17.71547552487346
17.64207483740582
18.14727338023378
17.742055459577138
18.175143069233233
18.409462503970992
18.317677701877482
17.54610136654743
16.810445945377353
16.87870697983845
18.090764493452674
17.995436224420985
16.95845134579513
17.421018103904927
17.61991505646474
17.163768291752366
16.775112797431515
16.93942115398627
17.94239422469224
17.50337296516239
17.182395372920414
18.39751953123371
18.854623460938676
18.13083851075629
17.510206390217252
17.121122697403482
16.07275116319545
14.03417461779369
13.427385642422783
14.77247500126646
15.363875570733516
15.555886158039861
16.468084525879977
16.236232327453934
16.046938690500152
15.330950483901585
13.731881308969713
13.01040989507896
13.760193586954404
16.064002835893472
17.278807972482475
16.861494144226935
16.290695500268118
16.25386699733791
16.146691064451126
15.80567924618537
14.59397688769126
14.528802728351302
16.044632165233228
17.71189238338047
17.93640693605643
17.397885533289305
16.798536785405265
16.114626210917837
16.105204411270833
17.207216614744453
18.320819068534107
17.975431146067475
18.187011968180514
17.916297944929855
18.216582308657053
17.541063166206637
17.523769280974395
18.38104194327257
18.628569679985503
18.327813165738053
18.24197591608131
18.97687555608986
18.7324833955833
17.501002888967108
17.096043063810654
17.237548739785087
17.2556427184923
17.359440289922556
17.560491136421774
18.144131936100738
17.7519725249054
17.613533711760006
17.084816217582333
16.935239180866184
16.415501310218623
14.804142924055643
15.037253852362563
18.192755623924747
20.53649386204851
20.108723705396145
18.57038078202676
17.65231161958559
16.71658485091164
15.232483474695687
14.427942089212756
15.966397054560591
17.413071032673844
19.655517141432025
20.631477212439272
21.992501526887512
22.913946787526694
21.991095168596928
19.79295953656046
17.923308328084353
16.926312072850674
16.696589581925384
18.2917420136276
20.602433623427032
21.198722515652417
20.398274414988467
20.264382003525302
18.576728935935538
16.336481617587484
16.46197862487358
17.613063950422422
18.66535438845399
18.971446182953958
18.46961710388251
17.216575913915946
15.680093069523387
15.616031770712697
16.412570172764894
16.924498038528544
17.224791540462686
17.770666139919527
18.707954108963207
19.10773271214477
18.144965124495872
17.31340260349537
16.331448447497134
16.421904855036136
18.28631228254792
20.39945524116768
20.441143133324974
18.849813596494563
16.27908956248327
16.449064993647607
18.50389545827669
19.960322634087664
19.665767207867088
18.388808573761654
17.587879638217284
17.79721860807246
18.89567419677047
20.189380343057707
20.148584035775883
18.691433682223742
17.373413118675305
16.92268504066008
16.52770187767092
17.51356306877437
19.32105664431942
20.381727383013434
20.069315682332213
20.390037297722646
20.718569418679255
21.51491164958099
21.285674935105767
19.82195144176475
18.839424135202897
18.319895430138498
19.450147297854038
19.524083239525346
18.42666339231812
18.2802034542106
18.166471177669507
19.087449566877407
18.83401492428654
17.84206241049044
16.760278799061933
16.78757431052412
16.174983454462488
15.072128575610455
15.69001445840764
16.07755038466114
16.836959322136735
16.74503399049434
16.988246852575486
17.805816231834022
18.200156265551527
18.741891455254756
18.351155147491216
18.414431801954052
19.020637963520628
19.692763693757296
19.494842404735262
17.712630202103963
16.681299239111414
17.47475124652185
19.094417066105706
19.8595314533035
18.91899580371114
18.45527749145077
18.544500288370912
17.461459611143457
17.701711827929195
18.28077314664898
19.46257240001734
20.751245662091286
20.84881053918074
18.730162743793894
17.05765401677101
16.722442081665008
18.283200409881246
18.55612727558413
18.207747886736406
18.318327834788597
18.105885486384377
18.78823629547273
19.632318284079364
20.113612940048213
19.080511947082336
17.52894566387353
16.90705772289152
17.817223025076373
17.70282316435527
16.88931013053915
18.067177076376446
19.35133007155213
19.188951705013622
17.98328411687745
16.985724546750202
17.46337680704393
16.843132471712718
16.33826439380911
17.343236126739534
18.53152188745482
18.58107861023333
17.97105178021793
17.50295852108135
15.969753155179443
13.791222852338317
12.708754252573511
13.371577526772697
14.174594338934735
14.511403293163848
15.737714963569843
15.711751866990783
15.85547105141168
16.197284005428315
15.497029224369253
14.915779945347122
14.79958046377045
16.14816554516181
17.835809380753812
17.960744076662404
17.178783884768013
16.226070065940803
15.687681202440917
15.724055186054395
15.448268613318046
15.855896763254126
16.98638063594639
18.399300659253928
18.54335936930847
18.077191549244365
18.087937334958465
17.829423487020506
17.01496687999948
17.29970238302366
18.400550580590686
17.52854016845951
17.08490071609361
16.28125381772915
16.382938384032883
16.061014957311187
16.543787521803917
17.61728242694231
18.41988631237759
19.30002936246497
19.841240700386432
19.966520986743124
18.21685662937609
15.99508320972299
15.116847473588694
16.35470355216909
18.12706611894956
18.386175208451082
18.0900015521887
18.745824489579466
18.82494569354157
18.830837611791605
17.828820764846885
17.09796352268937
16.555288250390564
14.802323803929077
15.026465382404666
17.917704733786074
19.5263870536229
18.91701928255685
17.414596557928753
16.58938494041609
15.812780075925284
14.751228008943121
14.581978301083907
15.940914783253266
16.703009273979813
18.408255815498972
19.484522957515292
21.471670271955013
22.405332173585123
22.02235028784375
20.46498811019954
18.7622674453951
17.556406161035497
17.264551490199963
17.005281074057898
20.460229237212715
21.468171197778247
20.88359986079817
20.9934668413813
19.61379558394051
17.58795676034034
17.19659104765835
18.17251139485334
19.33611691338222
19.673152474879203
18.916829850271103
16.93052591203788
16.2281643481624
17.44427250919459
18.844077632334542
19.324714431540517
19.178121114352184
19.368728862534997
19.57274578293074
18.70313965628625
17.352107244721083
17.331915605224996
16.880551917262014
16.913568068909377
17.697939618035768
18.97088570196738
18.905102603873207
17.541571926217046
15.856769163998298
16.140569345109753
18.349936317122275
20.359520787014986
20.325802329279785
19.027925657794075
18.138636558525366
18.144356195572037
19.010182985271484
20.562815655660543
21.316376412146983
20.612710898426744
19.35957546197822
17.957196824928175
17.267124356372644
18.35811477735513
20.13375024661471
20.98112836929936
20.80378027622765
20.932954351422413
20.885705046162435
21.04536867739661
19.877555956946548
18.228029166810913
17.685043457542644
17.818200084565987
18.558483432929208
18.33647078593355
17.928092497236392
18.14706483276136
18.10433234813864
18.149355630334696
17.72953264162008
17.157199142365236
15.629479064644867
14.789798180076135
14.698590704065026
14.50091265957296
15.19217365192717
15.751731759640958
16.079145790444606
15.526848553245337
15.489296133405693
16.737196964472176
17.80914072301696
18.717519097699157
18.2601074840408
17.832328696494738
17.867497189133484
18.996343611667577
19.632948428015883
18.47494368256074
17.315230922003526
17.71984323747812
18.326186958743833
18.151102614522532
17.962881720964358
18.864191079536823
19.075522834339626
17.23092433791245
16.272236170283264
16.995909563812383
19.034500783254323
20.841552969579265
21.688130192293947
20.64009621537606
18.777994995155364
17.7425796993851
18.616171942901538
17.9408570534453
17.762706072087173
18.568144565644136
18.846173079942403
19.408205683154023
20.742034613033198
21.990015164847907
21.55803133559737
19.72806327678333
17.946417646177974
17.75466608557465
16.958465072423326
16.299212016070125
17.944812772601136
19.95060359488613
19.697461152065397
18.131377686679826
16.63078905722785
16.231136637293773
15.189688870477987
15.32464309966
17.299961214839204
18.888246166389045
18.902952871160068
17.645443254260307
16.36881663946523
14.714913926428894
13.345818400029954
12.537899217469858
13.270129068542255
14.419290080261472
14.28504199100124
15.188596355229938
15.033841102825376
15.40862485511528
16.847034898941953
16.802118222136563
15.892707547110533
15.191904892058172
15.800839553491459
17.303549034939522
17.7083756883846
17.192305903922936
16.734559892850147
16.675339090511923
16.844700342286608
16.74105121083831
16.22316868419666
16.21075144606082
17.32296746727195
17.843008850981633
17.392385456502993
17.599288934075418
17.71071281228095
17.135881693677266
17.492211153918564
18.551998250391705
17.391543267317942
16.329752182612594
15.590102727000765
16.083878453359787
15.698078348635432
15.433506519597044
15.953364087828032
17.14885015146175
19.024010583629845
19.721445680637878
19.604770926834824
17.811726157981617
15.631753971069362
14.769995824448738
16.82987145396276
19.69702133205108
20.16380218649572
18.99877622392985
18.784722884146273
19.127585204079566
19.55720145808935
18.382357121505287
16.501314050060262
15.515667153244445
14.24485990140402
14.543185521384116
17.334679801089266
18.872632361374258
18.874285994179925
17.21283282233643
16.15004468489561
15.652515654095156
15.501844858415918
16.24218221922597
16.91157391165557
16.40752376517263
16.743003269585234
17.799652790809
20.06665583610462
20.532295144250924
19.722561404396
18.368078158228982
17.248851063945388
15.936251178490336
15.306376702955205
16.211165656560862
20.414125681863272
22.029475817009065
21.57649392891278
21.271265397133934
20.177908345018277
18.334018337193335
16.73646031047711
17.13163493276964
18.704704372843395
19.749889814978438
19.155401878884682
17.320447636668074
17.594717966222348
19.280761814145503
20.523551864416515
20.638612932814958
19.883028078807275
19.207332683750675
18.389222449355533
16.69330961325021
15.951236005350442
17.25969510125058
17.609974021585295
17.147145447613312
16.788404601645645
17.314177325174537
17.927496589805816
17.84174416319173
16.7798015639565
16.246146872613952
17.804907813300954
19.206486594226334
19.109018668856937
18.646710203478534
19.109301482682326
19.570302694789337
19.989333893216312
20.97151051274437
21.527385801430338
21.22002189768955
19.850713433426463
17.73318345827513
17.105058676526887
17.824322771362933
18.638076311848693
19.37028952665605
20.085816523539158
20.79644651314792
20.676107165778387
19.797637876273715
17.758225117770813
16.649530962925915
17.04641484154647
18.261282820595625
18.71009231716676
18.1697278052713
17.99023093055915
17.688473083005878
17.361364145991082
17.02660571632261
17.330650346702512
17.52589284071584
15.94109087362704
14.687621136458727
14.988556618089595
15.192289579367616
15.116326504558605
14.935127471651063
15.334872110473462
15.471501958541308
15.210190481147713
16.48461318147053
17.547844302270725
17.832278873455675
17.125329891859174
16.845753960259106
17.068266506350465
18.704693377516254
19.69005758357293
18.717965886353817
17.451484680266674
17.152696899072293
17.201196814805236
16.805769983886307
17.19949001840617
18.770935992330468
19.047580957348195
16.96172694291364
15.648272122140659
16.35824549849999
17.568604110791078
18.351951998853156
19.559078743899146
20.075470068988054
18.85640088812952
18.41804380565201
18.999700332226137
17.564087427771835
17.460698108523278
18.84230845545092
19.6095840731301
19.518582823498736
20.335529456821423
21.656653549483124
22.045546022207134
20.754595606829444
18.318542995985222
17.586862622005256
16.971034732068755
16.011475882336363
16.836709194701598
18.529769991769076
18.39403673501134
17.678844785916322
16.713223782590628
15.35028355440497
14.080157519774705
14.983430856651639
17.7671859417717
19.110109799298268
19.099495701913426
18.129730226752987
17.042198173010807
15.938088122976586
15.26151700137236
14.706552221900667
15.33858510528312
15.826055869722916
14.366903338468996
14.203360505808902
13.787262709219705
14.354379155952358
16.263623085469394
16.919247022765415
16.77225578650963
16.590955777790626
17.191412761644397
18.236981301644
18.542742328075875
18.042349596822415
17.64433184363208
17.593291001429137
18.089285299837073
18.225038689941925
16.898664719218104
15.680092787025206
16.221988566683482
16.635229907006245
16.044882504114792
15.866918408160075
16.036224501363552
16.60503350137172
17.588612204569333
18.27450556966547
17.534485318810475
16.457157185523826
15.990537009849238
17.09970232025132
16.66591542100201
15.892971220657472
15.921945184583375
16.686477011677525
18.65400949615086
19.774221933223593
19.9207711251791
18.924622709902263
17.131979383468764
15.937024261350933
17.503009675072267
20.076746599158547
20.599002030820603
19.76464132850094
19.68717130559907
19.94352424196551
19.651443031168814
17.888250693471747
15.632461488864603
15.103171195511745
14.694252895268567
14.548803694579206
16.65174759060901
18.150161014602546
18.877000298839086
17.33300815004448
15.782320229128157
15.11130650926988
15.642306897581728
17.52841830827711
17.6951826908297
15.788000636595644
14.664159453554197
15.541912001146805
17.85677796297847
18.437350883022305
17.667551088269676
16.86348915176524
16.844576371914965
15.49374977680705
14.239152741308956
16.863403234214886
20.741871037002767
22.31319795047851
21.47695007376916
20.398136655585382
19.363013884542134
17.64567751789782
14.664921119583422
14.016946742837655
15.883886017726866
18.25932614436244
18.824603927803103
18.007541072815993
18.640300935536953
19.841553266365658
20.01781427556518
19.440081572425804
18.605198354852913
18.215877894983684
17.00606250380167
15.403572228405867
15.463948360382611
17.326937426500614
17.697395561835286
16.856126089031722
16.91350159429297
17.741410873725883
19.08584171135955
19.545547452789535
18.927843342913697
17.981795226648146
18.83182453219503
19.376354245642606
19.040488900131574
19.160104743109578
19.94941359825907
20.49707499339419
20.75340800725798
20.833181985092207
20.26411017911228
19.65561359411786
18.023429009622784
15.983016505010877
15.966162880179523
16.6904488700852
17.173047698524197
17.865330273984853
18.736390907233723
20.01956138585025
20.101101622467958
18.51589800158029
16.66713923014308
16.952955096896975
17.980233289138113
19.768440690355405
19.92238072695565
18.93109163353895
18.515204976603783
18.013827935634126
17.479418161012692
16.916639801942768
17.700256556298225
17.91149622344957
16.557062843411842
15.788294848153736
16.23753373548901
16.252529460068537
16.139279056749185
15.880046669794947
16.129723859687182
16.36282187499752
15.672952412910673
15.977245790297859
16.595690440024182
16.83118631707712
16.047692250852432
15.481001780973138
15.638052859044167
17.304848843726745
18.16919328619362
17.24560483459937
16.11908832695028
15.638666119482691
16.127405337458214
16.640239768426078
17.096324033011204
18.233359458569076
18.760303710870208
17.4911761668503
16.345820443435006
16.654558726427155
16.772861866122003
16.589602012529408
17.47792332978913
18.81046496367146
18.30341196508782
18.832604489088425
19.545651407618614
18.06248085790394
17.74340402832138
18.744313979639152
19.284715985285818
18.983069365028463
19.210959073002492
20.00940827762009
20.571088612544866
20.29225666101643
18.483701981786442
17.954939768471313
18.13750950418265
17.271452401112466
17.198175408324378
17.65482373112659
17.478144633964387
18.020675841360084
18.024152818554494
16.4009085599409
15.080758928365434
15.774975196178799
17.80390865134917
18.171916612642445
18.080124983788142
18.070693755557294
18.269997566025097
18.071912224098373
17.380537373676784
17.274781584433008
17.89985557972625
17.407431714864394
14.792782923885795
13.709175906321105
13.939758989057587
14.723114287299254
15.847190819342796
16.35018929236348
17.58726058616656
18.280346057537248
18.74595324739927
18.703060059388367
18.305509549253465
18.131557981568974
17.884467941611124
17.164371160183386
17.8706504920084
18.717044778093854
17.401313726664345
15.826897034412548
15.58805442439471
15.735761828498953
14.687149321665188
14.528222152842147
15.292753816145858
16.980412096873533
17.584070449140135
17.18572446625942
17.162118441439485
16.539100314434908
16.908415645351983
18.841348960542717
18.98079356912597
18.226044505650595
17.65097127727871
17.26656561891876
18.106059827269938
19.136681528539167
19.38296505283456
19.333703549328916
18.40176942317942
17.30086174298984
17.92660295217872
18.848963016017567
18.384963504882204
18.009622373552688
18.89256303688906
19.4790264471522
18.93862242382132
17.360663136474244
15.94023199807632
16.251855480220282
16.55408241350308
15.855582082082881
17.068381978246443
18.0286207708136
18.63979655747205
17.692951858111954
16.53296154157553
15.588710791871122
15.888510345595748
17.371239157887093
17.10689540653647
14.90491241594786
13.24994976758095
13.78590253984504
15.707456676863906
16.547600033699275
16.78335218714852
16.385688619421167
16.490839238198014
15.367694456196997
14.525239427394805
18.431449415648004
21.2105342821019
22.50061065588569
21.821380977610765
20.539178069964823
19.618898623058495
17.80802447239063
13.888122035484383
12.206453888002963
13.938542136085132
17.29425485631795
19.38698570753551
19.489419511236747
19.73314564351608
19.952105511527122
18.942786421588
17.509409934436114
16.851386918647883
17.141773478587876
16.169917213356655
15.28205537341524
15.714226776796941
17.214026393730244
17.001934344577997
16.008088050256802
16.70252458296503
18.240399783548074
19.99188598388443
20.421640856115694
20.05985528922208
19.24810322368219
19.576660082857018
19.825647913402822
19.43184164337601
19.43313702714299
19.460690242445306
19.491851572388907
19.46888649496296
18.889633213291937
17.438314663599492
16.287808657109615
15.0850837946463
14.632106214390205
15.753553114034734
16.576270220549915
16.508697169270096
16.716125225559388
17.03066193280508
18.835706625262162
19.885497251046456
18.796305774327564
17.34490459249694
17.915541726756214
18.527108147408644
19.91160060585892
19.68511846277222
18.128777229662294
17.514938176722367
17.6595736316103
17.743891841372218
17.151756829761805
17.45962113138355
17.262163372589818
16.44617587017862
16.575079575195808
17.151830588396958
17.2861298617672
17.492537017997645
17.86590540395549
17.938992395796188
17.94502789855314
17.213000689799085
16.101832582089287
15.397482065186184
15.278201597344001
14.82097752639785
14.711480342593113
14.655656801605161
15.50523019274098
16.334400207855037
16.666110975851094
16.713613449091007
16.26178086741665
17.02905321501932
18.508351410436276
18.987499466563655
18.8087832546811
18.93174877227148
18.848577036153713
18.600953672452935
18.639235988248178
18.16946559343686
17.54526296564957
17.80699194041346
18.73576421741712
18.086427945543978
18.62008753925457
19.264471279102054
18.193174833053856
17.47044693518743
17.23954137681854
16.888086589505487
16.822543807446475
17.11210600204069
17.892265133721807
18.79183905871215
19.37002720665221
18.76254706687953
18.612436499775615
18.973796104393752
18.590792888705582
18.68833324581973
18.597611843774747
18.090648010884262
18.66263275838974
18.82271346247927
17.735122436992874
16.754172197517423
16.76354934303416
17.55116542078663
17.0775376178746
16.66244495205523
16.587846158882495
17.712318831677493
18.66074031720265
17.745389754869425
17.641654398064478
18.391061975987512
18.00198076132141
16.08387840551652
15.115148858433102
15.85586248443578
16.14328028031462
15.65406463301512
15.348515399313698
17.02923058195
17.504921243563523
17.289877060802322
16.391493982908425
15.586934375371616
15.935092676271667
16.91971654728192
16.94535561293412
18.033579618414464
19.045896686719388
18.368965756663837
16.905331766588837
15.566173375841078
15.23681313417913
14.378636329109286
14.941289817966943
16.225934498476615
17.94714588510303
17.59891011830558
16.31128292886267
16.646826861436136
16.742235813274576
17.515654630590085
19.26950032384012
19.386638515713212
18.811839417604048
18.489785356007822
18.030733575461497
17.494889030641428
17.649399231407063
17.868748440247263
18.675015365072532
18.852934727376564
18.0539433640182
17.993949477485963
17.423700075125737
16.486354334413836
16.56107896885662
17.60229329511998
18.698754205680512
18.986362021960016
18.52260431973977
17.631631776528067
17.284444262967526
17.56939074892646
17.38741538961828
18.71096519866163
19.07026244337874
18.59375003828794
17.921746484722767
17.55803091870198
16.793638964260065
16.670267431466037
16.583211620027235
16.30285763901147
15.13868512885546
13.529278092571618
13.713434348155953
15.460811180194202
16.36949676668394
16.748642256492406
15.843235565546493
15.650145431287097
15.42500865630167
15.93917100912227
20.212849082419844
21.475967249170196
22.021722324572206
21.539353118386042
20.935647293842994
20.66576026570657
18.80003359116939
14.657567781957704
12.240381975796922
13.606988969021002
17.233135416764217
19.6417172061403
19.71163888778575
19.369485075791076
18.78469413252218
17.257682312779114
16.072295761507366
16.14742380793651
16.691795843236463
16.064223917733884
15.259889753465458
15.067780731952805
16.297458615511385
16.557692025783428
16.44303529392866
17.96696034925818
19.780929333735603
20.541230607946297
19.81621546946942
18.809074589437003
18.033402247019332
18.04776748632064
18.365030741345876
18.203465015541234
18.455939411322706
18.610834308791173
18.47181505311401
18.448665544602026
17.569077802507696
16.035503669445525
14.841997632629523
14.530557193948022
14.972973940156665
15.914996848468698
16.74428632042722
17.082639736101672
17.381968126656922
16.603322575927894
17.44930955739482
18.665080417295933
18.83124761178897
18.54901025428604
19.0147983552071
19.129905803144254
19.485980846480896
19.205810976696117
18.159825141973442
17.271167613326522
17.005728053752485
17.20280067076083
17.010533095401335
17.24644435752024
17.568701380350678
17.44163187089969
17.511812452918566
17.95735155206649
18.524456391704856
18.5497778825607
19.09578804104456
19.5336114222217
20.017125570969302
19.47831546961083
17.53852316544064
15.597401743847767
14.534089674594968
14.463160474907886
15.208986461225589
15.20381453656777
15.431185271000675
16.46590681576066
17.532979941961724
17.974814658898822
17.131150871856306
17.89320732082869
20.251941971025804
20.987714026588613
19.879958880821786
19.25809651409031
19.7003276326423
20.466141712464896
20.680127034014376
20.02158407339552
18.944606837842105
18.728907074727662
19.250099900505823
18.569965919516196
18.682874986968663
19.20290934404993
19.05851714657289
18.745264634930724
17.818289442445263
16.64077437608847
16.41604315265284
16.21777530285208
17.080553526412128
18.40216067549186
18.837922643493144
19.032901270648694
19.661667096683118
19.6043313175366
18.841443507321706
18.51922527702209
18.49159715300927
17.903420648176233
18.131699119051177
18.520352724021617
18.279806137678868
17.724500971267965
17.313055181079292
17.298146589662544
17.041378001625418
17.026952094989667
16.43193019409544
17.26744585397279
18.78917695470129
17.913757187778362
17.3388963120357
17.559438289253983
17.266157245468225
16.80880683451503
16.367318321258804
16.85966416415606
16.87414678740076
15.921477005568406
14.9315259107082
16.48930153688984
17.236293395027026
16.907714475630822
16.0042172244082
15.13075668482054
15.382503745411084
16.901742419871464
17.252471302765763
17.653834740510742
17.748344768493087
17.416468347133943
16.931657781644894
16.07742563126094
15.838465984332984
15.356871091762976
16.18944717728425
17.093995011226042
17.543609666888344
16.22197212794836
14.943085026273092
15.416839352816746
16.10979640762078
16.893391408481627
18.320798224520153
18.052562382890798
17.575722509171538
17.54075693924187
17.684446235478177
16.63311570277306
16.025098966635912
16.631047808986782
18.21761002578322
19.28165637085964
18.503095026597816
18.236189210140644
17.19129046308907
16.361353898983175
16.985272358281783
17.16099924388903
17.842500461366924
19.185410762713122
20.123041915636822
19.77127729208087
18.408808812983413
17.605690603848316
17.715650784280783
19.150415819350968
19.607270233107577
18.701615743696067
18.514838754723733
19.47574148249958
19.536243295295606
18.893078337795025
17.070668257096777
16.712379380500117
16.343647319034822
14.385401764102854
14.239338347084255
16.062816688766997
17.219574979443458
17.614959906088007
16.370648667286336
16.42379942744595
17.41044667646176
18.623362681947246
20.928391119496375
20.78022581321394
21.10777868111993
20.953167266194036
20.736333128192186
20.887478590157233
19.200845413043197
15.541740930049928
13.049042510443986
14.154100845188987
17.458454506155864
20.13542890955063
20.168882154633348
19.033792142523467
18.356221068076078
16.935092642466223
16.436831780743926
17.140003221387456
17.592789313848296
16.881171605660388
15.348746383942684
14.532016504870882
15.661138689010643
16.029025756386932
16.502171814965347
18.2411805121246
19.88585901390702
19.838332036260233
18.185075144853105
17.040494934577513
16.691724476810805
16.543663654047922
16.571688194074074
16.98687074244181
17.92688202016144
18.53129358549558
18.383462422725657
18.72866717597877
18.77758928515745
18.181667187049413
17.04844186639903
16.473679596054467
16.32780899722438
16.35115272660119
16.503971009852695
17.353973335445794
18.289128981133267
17.50540039328628
17.184049845216233
17.645780056237005
18.53539378581911
19.17108724782534
19.488733988609486
19.246785958598885
18.600661457807007
17.86298098296098
17.69962908321516
16.900835522916214
16.44759909105221
16.39660326249369
16.72854918481547
16.968665214437
17.646852475981667
18.091967132449973
17.468109416243397
17.336313960234907
17.914734585334703
17.335255672871202
17.419725921461705
18.209942044414817
20.055911712627577
20.83419300404768
19.453789882457027
16.896638953681485
15.167999070453698
15.288209493809507
16.571856511847784
16.75680523258398
17.018726412120433
18.247776030383196
19.14076528265439
19.16457762970788
17.922358729152876
17.85684503581457
20.273447609949624
21.594404831554712
20.908051258271957
20.358102501708547
20.779210967335437
21.35016118473668
21.20455000743657
20.181134966566646
19.474365070380927
19.59593886768968
19.522700491370806
18.868368053689426
19.164932002693163
19.24214983911856
18.980265566505647
18.968364756700453
18.405778650782686
17.31798521495827
16.514542329372773
15.609426469902202
15.982860635747155
17.386452924518494
18.0693688321508
18.835863585412202
20.03577571896909
20.045374598095506
19.074237617401018
17.89646953279877
18.049344897873805
17.78036459773429
18.30722620589505
18.906841190798445
18.599604647453425
18.37588279668631
17.627633799894067
17.456237684694436
17.855932888232868
18.123915788586203
17.437012931428487
17.96062760530421
19.59801481688464
19.35883571113018
18.505912484103256
17.781649657604515
17.078926650210068
17.17298642169216
17.10822153788938
17.799016587639972
18.304625274224392
17.2524477747164
15.539115137624202
16.608566061885824
17.94764779061252
18.454765467148615
18.6375142680675
18.051080541235006
17.275668902438245
17.14564450291349
16.506431332103617
16.66782620751581
16.86099128701625
16.561317999772186
16.89248064133204
17.145042321070598
17.121264119620857
16.52449999582534
17.057904075463124
17.678837940734596
17.245662283968983
15.653474793852112
14.655888210407966
15.009469110951333
15.572689871696909
16.707252973051176
17.875492416732644
17.111480386215124
16.758898963526313
17.134080095586132
17.86272987193901
16.990264919720822
15.756265395779318
15.911103272309711
17.40609788895155
19.10447320272068
18.863168280463437
18.925368236784326
17.755694400278696
16.545737816814256
16.52044374514631
15.725552019516373
16.419644225953395
18.32553285507733
20.29371916772403
20.625726983251912
19.236312471098856
17.383118735986013
16.779650008134798
17.25744715884264
18.058072197612052
17.874305992732303
18.782808046123694
20.681186555659945
21.54110480784771
20.756308336686715
18.200431075210513
17.817528267033353
17.936657718055375
16.076652807134895
15.505775606705368
16.324769406985617
17.22377902910653
17.893431365970926
16.99876867733068
17.80293970189198
19.665075169048116