# vtk DataFile Version 2.0
Really cool data
ASCII
DATASET STRUCTURED_POINTS
DIMENSIONS 200 200 1
ORIGIN 0 0 0
SPACING 1 1 1
POINT_DATA 40000
SCALARS temperature double 1
LOOKUP_TABLE default
14.363502971184062 21.050791153857194 7.578096720898316 9.223376576804114 22.680965857834966 9.628323220965491 23.956579898225563 9.176047697523746 9.796683117968573 28.912534957487004 11.54264209339765 29.420008212766483 13.515104164532291 20.738942422293412 24.81487790720958 21.81757485522245 18.834279743744297 6.681397849184196 8.530588584328736 12.40894033783221 19.29989695708982 26.248983262580133 8.082094482473671 9.965790346546727 8.096150667645436 14.840888006936051 12.612260608850761 11.099882558811807 11.70358074029802 12.485578120077665 21.20642385194555 22.582001351056263 22.105226879712166 18.337005218619574 6.427476961129409 5.9699863682221865 14.225443310279319 6.640019123625738 21.700486312813997 5.945503413800883 23.00669809868489 9.782228917412858 17.475904322602034 15.459075960719828 24.090382474041416 27.83945028506737 28.640741943724926 22.173185419357562 5.479322768747456 24.622074584694857 14.341020461667462 18.031693845601644 9.294727736944171 9.84250731964255 13.780425490962202 18.32576403720639 10.678727220923658 8.681845212458168 14.626030946010292 9.428386369825063 21.3576580383514 12.887230162055598 23.59342037381114 11.934395333332535 18.968085205313812 29.357940930110352 5.119995620434269 29.701698549028748 9.667474621929319 27.36669060785034 6.829377469200052 16.70566010231581 5.95384014838443 8.898156304345788 29.136454460995086 17.491756093226336 20.92247430413701 20.57073092402949 13.532731012247336 17.34937470763165 5.110040225094657 24.462857371313934 19.548430349850832 15.074993976340055 18.51920582068341 25.323692548615536 19.165042938512237 22.599648046616583 13.181434342491606 29.286926756756845 21.14226671123846 27.266009657015427 24.948669272310564 13.351972388345438 17.801961348441978 14.663946843287317 5.555515987998459 23.10191054476008 10.112048756264489 28.662709457298533 23.24995777474926 6.500907825058967 23.41890863328558 26.27992718696904 18.130151736427212 24.312549142117664 5.541017249364617 18.278843272481318 28.9104905544432 19.95947357998741 24.11589985712434 6.631859617541451 8.796086141131891 19.49585584175908 5.247196625423019 18.081176880999493 20.943641656142944 16.311751260358562 18.52628057076451 12.700633795048434 22.13820037527091 24.813430652858084 25.14247963338205 19.24773616723098 17.698331679301567 7.3092709818974155 17.36712872041455 17.835219444391825 8.150950766719784 25.134275843180795 6.514252079098613 10.989690462350833 16.824686525161844 28.42459287089906 24.53281571071511 26.615909324026248 15.175405875153995 27.695115286184866 10.620312042471152 7.184422897669769 23.646988633019703 14.743685366841524 15.957597010052266 21.391275755553796 15.627007928546547 10.025798258310534 22.08875792644018 6.6276173126228315 11.510539213365915 23.560356632064842 20.953614209304348 27.746348834953643 28.246662099124237 17.06491095697918 22.848198704632644 14.456397788816236 21.352349961587272 17.32960792485719 12.580372332511923 17.175412154377227 5.666443123325686 28.013253715279095 16.98212761749582 25.415127351540093 14.533452907933034 17.72540120759193 21.176351372649485 14.427295945627066 29.457390249743487 9.546735810541659 18.33500801626282 12.41343182465041 5.714492261263089 24.071867485172096 9.232228225081876 20.234815774676342 25.369613349114157 6.060877269892666 7.275635883759675 20.012686513092586 27.914809134109888 13.781258259412155 16.497981764080293 29.486153113282896 7.09422999818869 10.325054796182208 9.089485232932937 13.554717906094425 7.138027319824696 8.291724206999081 11.749670688336021 29.21717411157048 5.731636528393678 23.593043699518724 28.191692731214403 8.330054410343847 29.141803756249793 20.357525629480534 14.43554319563086 22.22523053137032 28.767857660247905 7.103499124876221 27.563822666989168 11.964758475798966 8.813476072856535 18.54752368445895 5.614672911470038 9.190480407207941 13.08428905288802 23.437708986475172 11.174469976799996 7.768014833157892 6.792797221191275 6.358300870572595 27.697469844490485 24.917034929784307 17.578311813788503 7.372948420541743 19.271935420986907 28.4578932162829 25.13580823249966 9.90614291765414 17.96404221664335 24.58468049989596 6.763390939823914 16.835891484375537 29.57367198886752 29.1683556883777 12.89171202910165 7.503874937669173 9.309659052629156 15.06315888725355 27.06102978368954 19.90983999231154 7.7635791577145135 9.669313205778234 8.387921839018851 22.26538280966591 9.41705785440763 8.076303089758124 22.182075110328192 15.18513179028372 28.28837622888155 22.85382865980435 11.456608947179088 18.134012045487452 16.0734280433609 12.350084714873828 24.312446152407848 10.00022302781869 13.322802405785081 9.302496316246554 11.967842878528725 10.209591975220635 25.930999987886484 8.44747054325835 14.74065043395026 16.314112585889568 25.911829791649282 14.090693719278924 7.000814244148416 24.81254204653665 18.201460547303114 16.897312770737265 6.451158425462595 5.429324766559239 17.72784231222198 21.470867508970954 9.96001823114291 5.290665032134166 7.236959574560435 27.208145367565553 15.745442453534547 11.338744398297731 25.23203160928583 23.668669312814856 18.045686859096122 8.822221141119908 29.165374806605357 11.910263527341868 5.008253981486911 24.252791305757135 24.89319287424596 23.063852415403904 22.498985317845932 21.963550744768973 23.09919684433792 23.83443863115921 21.454935205334166 28.58568415625708 15.060462356424551 20.56446225553247 19.28621414370197 18.670050647862805 25.769021670330666 10.116338241158175 13.424578061031266 17.499588290120876 6.4626787862359105 6.793699105642843 9.61279988996779 14.783783467514498 13.727602886239524 12.889970882139362 27.260411853875947 17.028608994899386 19.8503175227021 23.264785827415427 26.6820971472278 15.744370861034152 5.162907892296882 7.045598071149207 6.169000345279156 29.918205351986572 25.12471397440305 9.604713138084286 16.926929288980336 17.769574762886993 12.346072968991631 14.655073113647026 16.68927405631044 8.727447361734873 6.790297802237956 17.303349809933497 28.365521008847697 6.518843239700502 16.81444837218838 21.119380848696245 20.226472904853704 17.43964259267173 10.08018983151078 17.829838867374047 16.078806836372504 16.485732959813276 25.745971125580624 5.657246222018074 6.463293481884417 18.16496075417033 5.482843874052189 24.051087697124704 11.551773162553706 17.9088540666624 19.083281346019888 8.534376390119201 14.000473955376906 7.033809318075125 25.010000532095717 17.746553211116684 10.109958591551994 17.600011261683438 16.482311338354826 15.778490052901496 21.60624459737954 27.842928596216794 5.665005761575135 6.048676826605179 12.243138914862174 5.300514754431247 7.333202828020584 15.969060571672843 5.199014199139786 15.307489646020706 23.552783997785802 19.31192959270613 16.656856013355593 12.654699376921512 7.1430880687045235 13.23658889899841 27.212323413925127 23.384752513393483 18.41890596667041 19.929358983201226 6.004174173274638 13.499322575850327 21.73125160959569 5.972586694077437 27.838817788745086 25.05452073717908 22.192729716033305 8.53509027285888 28.75534018486317 23.768514020292272 7.0481276840685405 15.585055420835879 22.474852136975716 11.790419976950052 6.742784086714402 6.770584957323143 26.752930120181794 12.193755865141284 21.591979233913197 9.636987583910557 24.442251399254562 9.807510591653337 24.573703068363756 8.274562329830683 25.691583562113276 20.096725070640577 14.482088261207785 20.21104663076311 23.299848545285126 9.040717852365344 17.63130931119643 9.42526210691867 19.40720900417033 26.823645896910207 5.553088788224931 5.916785673338574 10.6664100556747 13.831285212551604 27.656364513025917 15.563710707798615 15.2407223723808 23.716130853155 28.59253982050552 11.261697469812475 9.846576698422318 29.972315300832264 9.631758884583093 25.46850573710127 24.004023244753977 8.138744747461928 11.146186062335008 27.73131736092481 27.73573759214691 26.36368483005451 21.069435336998197 28.953452995112404 8.131280777405198 11.792939972454493 26.809864083870373 28.00100131364759 10.08777770829716 14.15070664366288 10.484734729906158 25.781145127248564 17.95999066582663 19.310193149194127 19.505713304978542 29.658748073604052 7.393854966583941 28.423731347717386 19.583322749712938 26.530805681509648 17.019654204493182 23.12275679590211 19.982339157761967 18.997327538398736 9.273622339189645 8.271059033720494 9.403847812571502 12.635792317075808 8.971317298598894 21.53259905717167 6.6699269315543 19.781072643765352 20.16144438858864 27.029933488891025 28.748875233305103 14.336605419818051 11.058245286343475 8.26133717943402 15.280684065791512 16.769005541692557 22.406586882513327 28.691291327027226 18.887966667564896 14.13515327253892 16.81150822134869 29.147574796645273 21.299342848074016 24.167445595837062 6.576879358574168 7.225403118347405 28.508709441754792 19.06666951640833 15.851909854922988 26.119759007239043 19.853983946991285 19.218198541203996 16.806586519880383 10.657065682341692 15.759815450401886 22.099508314004737 25.702712731707688 27.22687291866799 15.462909666317097 6.644417585278616 8.104004663695271 11.649563484498547 16.79772774786469 29.75496226155893 29.652462837004975 7.560328078169963 15.682042703183193 6.62475650846921 26.634270037526452 19.2642677282597 18.650168788339684 17.155217212996067 13.665992359247154 17.18790112086869 28.60994237525354 29.100707270810993 5.079182853460008 24.72395837525865 26.57834906307903 7.358102416294305 23.18956124737432 16.633480668301274 16.926248442922056 8.149169407617158 18.452641463980797 11.949935850498449 17.935354720422453 12.03196125182777 28.36413936767847 18.29272491452631 11.904595360162594 12.644670349740254 6.392672392335603 29.54122190720667 11.22284288668165 17.948043341036044 25.7896621418207 20.1047987685916 19.48768606085944 6.450764047090514 20.177049098029315 18.166390404073876 17.281581402030294 23.77157666337163 17.456612482375448 29.108822416004145 29.861599247400036 27.774925556101614 22.6278065333836 19.15436354388695 10.932475902339633 9.48399223875824 21.353639806031804 5.273209974193714 12.359508971948511 7.351101899416339 24.54959633941774 13.488052161846365 9.596666036198528 28.98094761708503 13.891964100774564 5.281263058698814 29.11246312159852 27.605506378176415 5.193856954329089 24.761706524001823 9.46802589917888 24.068859636869323 29.68236787490653 28.884182018279347 12.777479670381194 15.183925610940506 10.609386732006044 27.21985607990191 10.465812020821343 8.314871368208365 12.461459862802954 28.29225161085001 18.512009561655635 13.674991992215642 25.176964520893513 9.975632485825681 23.993020076562097 26.13081479461477 6.987882604110347 7.664831462605482 14.371542345559972 20.306508521918364 10.759388447544053 8.420860282064892 21.80992193925099 7.9265155936194 5.110253349507758 19.00451740417121 5.449580738952099 9.886196874416509 17.154784219297934 20.478242111805095 26.998901048289017 10.343612715270504 19.84364671116459 29.38571904164098 14.28393566307055 18.581521733147003 6.569999808072273 25.935940570542837 19.884897671829975 28.24843008118515 10.812651277402173 14.00258617026293 24.524141081066723 29.63715144031759 19.966462104925917 27.463854713176982 25.661436652693542 7.21756334392639 20.1678761595714 23.30562216023903 13.09025547873853 23.410050376641014 13.874907645798432 12.413389532191381 11.238654996237653 6.0506168792851325 12.780437376584839 12.939669881527916 29.00339011013618 20.621852490174973 26.470419279203867 13.165981235647774 11.96607657787591 29.589180162841576 8.847497617344342 29.086998686858188 13.953492913228612 14.255804642114418 9.753219157967642 13.500109651497304 22.941903944837488 11.190791076785967 21.387749296152816 25.398894735380164 20.32790597673104 21.25637677734154 26.83402794603595 25.177675507987818 16.60875624705354 24.169208908458394 7.815230733730517 15.112988111455875 27.60087466136398 12.880418434432151 28.064310122645 14.431299642892386 18.45960467241083 8.86712120462153 29.800399234920892 15.901207449314695 16.908457337359152 12.52297682913547 6.097615340765931 21.895290893568323 20.181666752537197 13.036561948695113 9.891657390633561 27.7814037958572 28.558587691783934 12.869640592923949 23.883473237599304 15.52978449563477 25.140923131872956 29.829269739958317 24.341983661981267 24.067154261365214 11.719927404174438 14.710680530696425 6.3206161121034174 14.216935596228618 25.623461995434937 16.760806191581032 17.290333621008266 16.838254071161955 17.173517830981204 25.29855628254513 24.728598782322802 11.793462912112041 8.51514510191317 7.08256457779491 9.799387646480946 9.894377785328405 25.02888993252893 16.29091711708059 5.732342625134266 29.384961940130648 16.34594703142451 29.084834459246228 24.788525158330007 16.233401485885853 14.537282331055682 24.085445355516796 17.676191476191953 10.65845696093715 22.918119567036264 25.484245448358966 19.736080515106224 21.06736041370124 15.557846946400806 6.9872937088171865 6.08670998309287 22.82264475912094 22.507639807861903 19.928109429438727 21.582015921445457 8.661769001957923 22.731552344487504 22.233521616905314 12.052790152589942 6.837706920066881 19.6110366035159 18.21639580442141 6.88460636609388 27.170246641485043 24.84761000331727 25.89607562170388 10.872254149295504 24.492109134139447 22.130268658461727 17.90013230434478 12.23260792760133 25.497510749611454 26.733733595327045 19.86925418192893 27.962753767213748 23.422534304292697 25.47679711528772 26.972561341146758 29.794464294150977 29.152908062318872 10.4849177640894 22.39326320080995 11.504579277050862 22.401915644190964 14.20375581188438 16.181017705712726 15.858787996149259 23.433870250621528 15.71633044630671 12.643629857535018 17.57995819212458 9.40582095377292 22.497969370960558 10.915233564774319 22.479972568930826 24.73876503949417 12.563052312846661 13.625740575293134 23.6337572078129 9.696032213363624 13.806997332855083 29.472858079038307 6.859164378742187 11.535769596726873 10.474461274605954 20.53918086204269 7.6102803688485245 14.165432577712144 16.77568107330686 19.32893779293796 28.754559843291727 17.444497799276327 24.275729514512978 14.12535434648014 24.98302370023324 9.973253053125816 7.825188702256784 9.297193737580695 14.282140310211961 10.70720165677914 27.737173403443183 15.392410599191038 10.234195917833281 20.41883317629288 25.425771555610186 14.634767330624921 11.908173224264047 22.065531247420193 20.585535048071794 7.241715169102907 19.694362254223144 9.41443003912461 28.765663685317516 20.965603553462863 12.92687578440891 28.865117569508275 13.196920211695963 13.650474986024589 9.824029963296454 23.633642410196313 13.284314903648971 20.69833032543211 29.74007246442504 13.673168887413404 10.473822525304012 16.228153635475667 25.96098557993379 28.626159950537655 27.654149932833253 7.369512696135292 16.040053513545566 28.435360250186836 8.363591640875274 11.525014226997705 8.900466011060914 20.160726491489747 13.001240025765293 8.015896777515021 15.60326678255965 25.164028696536242 17.216079760116642 21.595113190545128 6.735596068652335 13.742580743646238 11.798743153215774 23.49760301917326 21.928015993375233 5.003367325112133 18.036490968036798 19.293649578593715 21.923519574920935 23.70459780122116 10.46774500808958 11.49177097376035 8.731236743536847 7.701113984410178 29.737633334608063 23.78197310934417 25.531253863992607 26.741242120304282 29.415440932875228 13.701298886933012 5.9949281833913135 14.457890179131487 8.930097088923857 7.260474444791519 6.494056854459611 18.082156232506243 15.831273307725697 13.766067286428672 28.34968546281543 14.090286229751596 13.004529185710965 7.882527258476234 19.21180505392049 21.60185302999585 16.362068323883918 16.28867557043561 22.16626058385093 20.750864438560953 28.321155534007477 9.178357871732679 21.34246732262698 18.997079139424596 16.915604012715722 8.990748331319102 29.324434510507622 15.093915261958664 29.657921056800323 6.30871917024006 27.54133466781763 25.98916766188555 14.438635574888929 29.870325732594306 18.21714634197049 6.708792871264156 29.96746204603217 25.516884585026762 25.427123672991236 5.252260125547038 17.614424197320012 11.663753011357173 5.460855242518549 24.954574739371072 24.760381257980256 25.331557533766357 18.23907734120843 24.19843879045028 6.77941997159192 9.639505919588885 17.20548397998096 28.30705360176952 11.614775869218228 15.87397765878042 29.363313841559364 29.87955301562347 26.98316247539559 10.37825566061698 27.065140593221038 27.34724406805479 7.45522222622159 24.368085730515034 5.468257301510497 28.937263275530526 26.907650741669848 6.107745280958156 6.384478353698948 13.128686155778755 11.333709111821475 24.001180149024435 15.723226475422937 24.439375675976255 29.9562947546564 11.191252461865119 17.052233613111998 26.692723694571928 15.544970482113273 14.82350319543501 18.45693098862075 9.789849197574878 10.330871636138271 12.281912295411136 6.226247206747194 9.027106172927787 20.751118016033832 21.446587640124243 12.529138425031482 19.535119255341435 27.86724552861194 23.375345211519946 23.154160492479 17.93336246198738 8.626266020035658 13.315613330170994 29.508228321909524 16.80804126070772 25.07615316399684 27.370926167656286 20.577343383194513 17.5680327238681 18.151090622273887 22.680021823725806 23.179503698649476 17.731857294060838 15.272807328321337 20.847284747310056 18.5332519386429 25.733364790803897 26.852363003483504 17.705567542206694 5.282717167002514 17.46650052046636 27.78973469181826 14.86626567496662 13.627961610867121 11.487192684396323 15.611912546223737 26.37277225996922 27.63062308824851 18.173530625900824 8.147080973906526 18.29199446474528 26.41856206018145 13.082521875109528 19.696410399973516 26.751219152042342 26.448563294360405 6.619284012070918 28.339854297802006 25.37189905858279 19.361024580159985 25.90670995729594 26.935025733534328 18.150135090214853 27.618691454359677 10.535676696504316 21.149181375598555 26.603541895870126 6.952629673110456 15.497963038550711 5.162651697000318 14.456665541373027 8.910879562398254 11.990187526693802 13.429886050766761 27.870216481337106 12.605069190953278 8.41130810304701 29.93635417835668 22.758605962968684 6.9584055311817865 16.933792888112475 14.288796676091312 26.27769136460507 25.934450736630673 10.696875376824337 8.755598152332798 23.42414015233736 19.814985967245477 23.79834187135114 13.758430826703318 5.7069233463639355 5.63978768123758 15.472851707399036 15.21572534298208 27.97140272314374 27.0591586218016 10.907754164344794 20.008962006013476 5.1019901712351166 15.994570962267607 16.981961606572945 12.645630436460474 11.65646701281896 8.899863008405067 5.229926290415741 27.388080712405014 16.519469200818143 23.41110589061807 21.469584167767934 24.26018544519483 16.865771893745347 17.976494772706758 24.366338279529547 23.984956560449092 27.951913804978766 20.144481236317258 17.778228480930743 29.432697699787592 25.82075941970678 25.94770937129509 25.16662632567041 9.570944496720427 29.243090819949426 11.704359193622834 16.962276752679728 22.10785622313362 27.424882234110278 18.615771777678397 7.203360774417288 14.430044561440967 27.388893521847127 19.942058388086476 7.20992417866896 29.058451437030172 28.696414181341517 27.21498201092881 7.918697569219889 24.99229655006978 14.420265694355312 9.58949068387865 10.420356898227707 21.75634940110898 7.674781529365583 14.093138028392106 11.377180560534953 10.232194038252995 15.200502282127028 26.033919282629967 13.514398435527967 6.902118169137681 15.179343464971883 24.348403220591806 24.741840344818893 26.64252480810009 10.129570834879019 8.82783614430496 10.19373182530476 7.214204345627002 28.716403942664122 27.886824689337878 19.75633413149236 24.7171607307856 7.86965696651531 28.19922654467612 5.31481531668737 6.792763022123317 16.2791000921899 25.623673236513937 22.228930793112706 27.911708716651415 13.621844592330245 8.698868469349268 8.180102983444522 27.906770933588287 21.06792886863895 5.725969566494361 26.323108954461244 18.94261904766678 10.483204600772979 15.030370692783222 11.264282285553696 10.25132300448263 7.7993242621748315 10.551629363534799 6.889896879040032 27.398362407297554 18.791989093815985 29.181365563123798 26.644353058901885 18.096390176070564 21.794318159055745 14.790047023038886 16.465712185786646 11.805470020994392 13.014847677007944 6.266133161093158 20.81787810752479 25.455932175480747 16.120074775915825 24.055019323152063 11.787914443326784 13.965276307029269 24.284504718005692 23.464275965872346 12.103741122251101 15.661620005676372 22.54187292461916 9.45733154091381 18.788356241159015 7.262997448730331 29.315486580574326 25.939989187644255 7.59172838705592 16.851578103862693 6.61306027744112 11.12830412086284 29.39701359397213 18.529345753452635 7.366359509840979 23.27152057611425 10.76959806284188 17.386503329309008 23.14244236957852 15.776085380295875 20.28425141398933 28.63626375294472 16.33842766914296 24.480168506705713 6.287880648482629 5.276159001416209 13.979982391080203 24.341003884988357 15.425998974230813 24.536184465641814 16.313118105567973 27.19963247616667 7.6219222087250245 28.938485975421276 8.3073881188057 20.316397380709326 27.955215022719354 7.337826660794145 12.864176658158422 16.872974680278507 25.41387560101291 12.85364037876515 29.043406757666606 14.887188154673055 22.171163434293153 18.525978679215108 17.877423315073976 26.50365779502484 26.300915432044036 22.505250374755565 5.984413260945885 7.117852909270038 20.92298763456275 13.551836418870037 6.888781665274053 26.08020945998909 18.711453550922336 27.82259120860857 20.113530665292604 14.794209147464953 26.15478441462009 29.59745090900044 18.175729092187083 9.949589736238948 28.987339920700144 9.17280532094497 19.16077247833901 16.123690057133864 21.42455489808318 25.039055439382267 11.105801491948217 15.011337830872206 12.344395175027802 29.67179153372135 14.751941164523265 8.003560958889878 14.889748521819989 12.635949242804058 6.681203142490473 18.411130133788383 26.803010124718234 27.65475614814989 21.4776630248969 18.615303795475903 5.21589954847078 26.942196236971462 19.806220384733773 25.787458777455804 5.160035546432424 24.08174589002385 5.265480811923998 24.649346059557857 22.161607359659502 18.029778183433507 14.72576228962255 14.674331120454596 5.508197503639746 20.21431127183356 8.158341035546492 6.452090304204987 7.536788571650803 14.730041968354078 10.158342960144813 28.359175369225373 22.306914112946313 22.08238441516263 26.10426122422993 6.690314089805373 21.534265276760358 16.2434960612635 12.000933238762236 14.1148432049385 6.171297713190079 23.93275517836097 27.652176512031513 26.469106983736804 26.45058177518073 25.642773789016676 15.780846744788947 14.02686815852593 19.639093219832546 28.724516676175035 26.15310526325579 6.94641299021924 24.41996093021577 25.04600421132015 29.165555522402688 26.742397121290846 13.555638119472613 17.959136583383014 11.463931591006148 13.226844486518198 8.226628120726573 23.486866347102833 18.338860838839487 11.319146498779102 21.74028141343794 9.697589719960412 22.986499191749296 23.913464587382666 8.175839399330794 5.09299152045148 22.186620101243204 15.371190164013644 12.528975494636134 17.527992520633703 10.80683411976252 25.34572828982108 23.470126251967162 5.802739512051456 24.713796050206415 11.731760607630191 21.218673430916354 12.281813056393425 21.037259226607194 24.416001859315575 9.796917827558918 13.786041836767087 23.149219483208682 15.718785208533857 27.455587970804054 6.0890170143105005 20.091113112649694 10.926932188905365 29.513507600783853 20.702086914285886 21.226111681705348 14.453870464018543 14.898527395349351 14.70917194178869 16.450365607898647 6.012517162047988 24.472316127564294 12.257437076100858 11.446606341121122 24.88908406255674 23.34702433184355 24.59792322116371 8.526242256246004 16.816618234121115 28.41116057029393 10.967222035782441 20.044111052761732 15.976765368548488 15.96023330898174 17.8625541214273 12.29774034475859 6.871070536785127 10.207443077117293 13.551919899276768 19.296892911773792 27.078824659295798 25.850172826834644 29.64537764533789 23.154528050000383 28.829564922772132 8.669843985924073 27.40911405202742 20.672391995267926 29.030197530571492 24.575213498454 27.96710444858244 5.413068244663164 27.696663343318956 28.677208118817376 22.489911320443376 26.42794876559754 17.241396446792457 5.068218612825394 21.11605016515873 14.776721978785496 21.25430783931277 25.69507958245631 17.579851814474146 12.417417440702152 10.537519525229683 21.57821845610468 28.8206179234034 19.494678964593152 20.34152018523318 7.668417050364938 29.938694040434008 16.39330103200221 18.57170349945534 10.530466401936405 16.88898886957834 10.492072090631817 28.012565653340456 29.872354832418644 5.366980876693382 20.259679512174216 20.82073282636529 19.653535831059195 9.322353622366679 27.55637423441713 27.997025563219662 18.96795220269815 18.831479679048247 13.0412934575728 15.094177261395265 11.64096665950793 27.883289589212918 11.034021371176781 19.104488198236492 17.273039461957282 12.314264813467531 12.137704160409786 15.323322462067244 26.02214542760551 25.639112233634542 21.446309547838403 10.33797952137666 25.862269896763003 20.721836757004546 20.530799761894745 11.537362217996792 7.542557091869027 14.471666978603693 16.660805089323897 19.079964915166965 27.581443533515454 20.02175755214045 22.645919344167808 13.38741800827321 12.968129498457884 25.364038902565408 6.9735069624547545 20.490793782963813 18.511373973033557 25.35522516688528 22.33851718259417 15.123277361657404 17.509114411094682 13.842839487360536 25.942412289212967 21.358482824034763 17.154307653216776 9.309836105341414 7.6500933033324685 25.18771833705382 12.07283724373122 9.395816752123121 24.458685190443127 7.219982545249893 21.296261469986632 22.6942837227186 28.92126053043261 24.79907620636369 22.985371994754967 16.894829913405047 29.729260019177353 25.518725610282225 23.673526216583284 13.906458510277568 7.596274360803195 6.12200762724364 13.709033559708136 15.501639971673715 17.14210814673831 26.654403644373378 21.587544227701397 5.270941287007459 14.106746526201887 28.139212822669407 26.229891289132983 16.14756765941871 25.14175382375133 25.00891269555904 9.629889196686698 24.41776392387953 26.45854191997802 10.447313856374752 11.904238945522486 9.041785905924048 5.30391928693467 23.708896341643495 29.940707435053913 12.142689191522258 13.687969882843866 15.211389535212065 18.534360522685958 8.56391387582789 9.570334713480648 28.886204785951687 26.188690826368408 15.863274082612385 16.0859775709011 27.270803707240837 29.534583356032 6.822461296791375 13.430312260157145 12.864690835351663 18.42147866256546 15.657957349767532 5.006025117128364 15.165913172124261 29.26670069484676 20.619884967968133 26.36421660081602 11.43413646004085 6.463415002001254 11.03765567140153 11.246686631448235 24.19652307814638 19.45574465423784 22.173811034635957 18.3700244229792 17.337729566514998 20.630288346437876 21.096698188878158 9.17989636368171 19.764741443464622 26.779676158757944 14.310016650883904 26.922973296771175 10.708270914832761 19.52765611744741 9.177502194140848 6.293636991727529 26.745309145348077 19.533480423307466 10.431435012346615 27.388003009520652 13.091569525895007 29.140643070939813 26.008405955527078 27.07029497168427 22.093267337763475 11.786516575524773 19.910250664616157 26.61694381464126 20.316713243486987 20.776644454192407 25.70137432423182 19.135084798762605 24.09010897907488 12.116384837339801 22.146811380786005 25.52696443617125 6.52844075030559 12.236229857609233 9.981046964615455 29.966197123355517 28.758386666709765 14.528582882324466 16.702551111240133 17.242251054022038 16.878679503922065 22.674924090760456 28.268484909060316 23.03673844678718 26.03035363777633 9.277783333435742 11.408543208681447 22.05717804409244 29.636884975110807 12.294866168093131 14.54831139672966 5.452735932198889 7.913667192879937 21.7748620507079 19.410117335884795 8.65386705685534 21.189877940325385 6.868946168044507 23.04425693294524 23.331892395849422 25.365167109373022 12.850009390303168 27.673650078716598 11.964629321176641 18.83822405290334 29.963127824739818 12.266553033706588 28.165533714298057 27.580590624273402 24.93285360216563 20.625331227901146 8.642665293687724 16.257465656093668 19.010287750390276 29.406751581028047 17.8796739718154 11.478002606785571 11.119822660394266 13.401276156264814 27.876960045425417 19.623437466955924 8.691010696313974 21.51229815803097 25.55655756534278 23.065521874713504 8.567508995733771 16.985902226488314 23.745905584610117 7.775648705292225 11.377909115993951 22.38828121279581 9.231488105101144 28.68372490886335 5.269712406562306 6.048864282265724 24.052391764543 27.307676183553017 21.51518329527444 22.22339102521407 29.92788679280254 20.302189225586883 7.617002600944582 15.174275760700176 26.199376971947466 10.763667005541295 21.623714161365964 5.30209363786072 11.192647199768949 15.40092491527225 20.389239553298665 14.313464371504912 27.416204086376112 22.65131504888452 10.570144199066688 22.276434103085546 14.32656315582662 24.89726083082836 21.114829075275004 27.34767766443707 29.28850485771288 26.26696710020945 15.585965791318 10.853141022964483 23.392833762056807 24.285225296079524 21.997063378711825 17.598133845620815 28.563231131628264 17.16451404226127 28.500663050776378 11.63221288388234 19.140182685733926 26.33308207094845 11.137456478164005 14.857067850289154 6.836757305105227 21.010319317928655 20.768421984177575 23.906567774690323 24.877401559256732 8.321312801000808 15.338751638634495 12.496606585835552 16.99335785931322 19.037114158307972 12.629229295238726 27.071583264861133 26.575912331106277 18.36318435560794 8.257064466189988 28.518092747205714 7.404042590773048 20.02787529358022 5.126539596155467 27.63454941048159 17.58543177137142 16.270984285103303 11.241700221479649 11.840666657041647 19.633859109918802 10.842802047760825 9.35273338335211 6.6341539391096305 12