# vtk DataFile Version 2.0
Really cool data
ASCII
DATASET STRUCTURED_POINTS
DIMENSIONS 200 200 1
ORIGIN 0 0 0
SPACING 1 1 1
POINT_DATA 40000
SCALARS temperature double 1
LOOKUP_TABLE default
18.591998953466728 17.83666250231406 12.119866368209427 13.261487795267833 17.467274289289826 13.747377734400452 18.068873433261267 12.856770951899778 12.265687169519632 21.0604553862943 15.797316252769845 21.19946737545771 14.656896686703217 17.846934540140293 23.374159254170905 20.997561166897597 17.56309864293656 11.1292811782402 11.84913076986155 14.868120845434094 19.30676596487855 19.121513545089233 12.277657495816255 12.85923087510576 11.342678803586047 14.47443983340949 16.40958882254257 15.238033072845017 12.355222806372463 12.463149752804792 17.233361245810396 21.252035130177962 21.48817265933195 17.48272341115596 10.539739146312623 10.581228611686692 12.302152832383122 11.64382397703925 15.585812827888255 10.674891499173635 17.503963758810986 15.410982782896019 18.39211561109695 18.028292409296437 22.105056173720683 24.358059332521048 22.916588368316397 19.06407786232875 14.081571149671845 18.018121055267827 14.893294062415077 15.337885166630011 11.547170095588266 11.089305692445945 15.443928153784121 17.017218901712248 13.329827626218991 12.613474475139512 14.938753181484946 12.884694335173416 17.314979512366623 15.987728254515782 19.584980635962882 15.029292039199984 16.172145166166153 19.670194270447237 12.435922487615278 22.625307504839896 15.908794340450362 19.929484492041926 12.256557232130087 14.973578843463992 11.928115956440735 13.44796214609064 22.565788771599703 19.66945435986607 19.855045872941133 17.635928097860088 15.78496039537747 16.381654376408022 12.08371106290391 21.59921574999524 20.80363178180582 18.49716415882378 18.85263012504415 22.98640495159228 21.623725738898415 21.685716457753433 18.67724385218001 25.20965284829854 21.290498830248936 22.588001940565942 21.58503435264039 17.811049695068057 18.341454449776183 13.591304559141136 11.113870551741705 18.477709391270974 13.900125028176783 20.5972044375196 20.285850899439385 13.881356861376709 21.214996291190772 22.562250027220337 19.741601500980508 19.160979599333718 13.646623202544468 19.465138285626555 24.163324110385606 19.751857219458444 17.985977890059 10.96683298682714 11.612944424108186 16.86309605362845 11.765142458658316 15.005962824356702 17.787747805929406 16.69688764367937 17.22136813319666 15.875692813344386 20.849965328950795 22.11973551763333 20.346604219091788 20.053324239019847 19.242602570900345 13.03295944196152 17.2516908998937 16.214704057707294 14.599330499192014 19.75118757259639 11.20515798094492 13.333945547401942 17.079233435373585 22.580693820472497 22.4082825010976 21.64418105236569 16.834056001975195 21.05091137105908 13.447961939904824 11.962670228322185 19.13187831160533 15.653982826698755 17.42107010160105 18.074532405278486 16.6453677623325 13.727574957025578 18.263344932401214 11.551195581521323 13.85091940241555 19.55502216035101 21.58423993972135 24.835762548387972 23.359327037095078 20.42918851857705 19.980103964873425 16.85766512649391 19.584827285948386 16.799391676947806 14.555193541555848 14.768857727136186 11.871052500625701 20.41983064962489 18.96505425778508 20.29885187612196 16.113365506327536 18.274722172637144 19.10632736064149 18.2457546012404 23.15605635255169 16.072720233858576 16.041482591102596 13.536580897382786 11.316553288436726 17.598876549829296 15.513540135093285 18.648010098722462 22.401974895111092 13.866580400769262 12.160963728729719 17.920856294213284 22.52395286584652 17.64529336207362 16.773244318546208 20.269583784453836 12.10504528569948 11.703965107290058 11.229934056975882 12.902559221418532 11.493372799862447 11.424461138399002 15.549114586780815 21.79426737831831 14.736897829658407 20.511974069440967 23.80056872194748 16.147922363493453 23.88771135847477 21.127140975586414 17.40852508148709 19.977143923262286 22.798558844715366 14.117130132166979 19.458937908606107 13.241363566119194 13.264050698200437 15.960356623258415 10.10456060215627 9.806584176215416 13.170814570516182 19.501500354335107 14.51998908961403 11.979326326857771 10.014114326981286 13.139590588342825 23.99813776086335 21.958168715892906 16.87703701052122 12.75002969026595 16.91466551859174 23.631276748093033 22.24579763291789 14.606507366791487 16.088863110943482 19.797530534529177 13.262586979834717 18.024288329867193 24.39392039279135 23.89072962604959 13.88422424841021 10.484180153740882 13.68297035738435 18.186043150495532 22.003569276496663 18.01567751430723 10.495697246487538 11.402967794408804 12.011076501531685 17.0310470705706 13.54838199188839 12.622805378701562 18.26310717272538 18.218936025620277 23.393257539143416 21.33783328620855 16.52589667803494 19.057807646509847 17.977434672719394 15.880737750013767 17.561933552795384 13.197974734498256 12.637230557000523 11.459409634373433 11.46398593817931 13.185716892277686 18.539496896476173 13.668070151228672 15.081134839306081 17.537076608831917 21.624980125380453 14.826790328871917 12.348935389553056 18.665386943680964 18.237145425015374 15.666200358068936 11.667463854369695 12.686353812548685 16.111738319374865 19.109270501805106 12.797077092514181 11.943270879820824 12.06977836351078 20.849460884174775 14.753604934019787 13.460137030650342 22.87522089862223 21.59114038083704 18.077645353127224 15.533832110393911 21.634709198625753 14.699747958518078 10.579595378741613 20.258514120249366 22.377467821309136 22.105449897363076 22.312188030249224 22.733010601258204 21.62084950819884 20.99620888197284 19.890901572261164 23.50254697829252 18.631807308106072 21.54272801297676 20.869884526258797 18.129042788682685 20.241482799945334 12.760853759052376 14.235150266948608 16.476801142799825 10.809912411100107 11.43464631409997 12.603151785290086 14.24009355207837 16.975995194610345 18.01015350548863 21.107312565054926 19.380745575434833 19.184777240577336 20.81056329021273 23.61431326133412 16.88572047895747 10.69483430023339 8.41192359569591 10.985898738626842 22.16680753486312 20.15338431904876 13.960659016756825 17.640252112244244 17.124747339552794 14.270440332432914 14.466618486659295 15.624070384809503 14.10946422547567 12.181891438418408 17.88281373634629 22.537894597038807 12.931609414929337 16.48500762098647 18.152465253419837 18.382317139854795 17.600311770073702 12.967949963601392 16.580966248056146 17.072902670050876 20.09463776731497 22.651765657994336 13.87605575932113 11.912350786482008 16.40284159994829 10.92630673531239 16.91934167933706 15.627743932731336 15.79142713075975 16.32753629273418 12.226797828930652 14.315681930207608 11.686812215844608 19.42428065899951 17.332837164896212 12.976131258041708 16.140696101665643 18.548699420250305 19.39692613584901 20.39151327737831 22.21394745472766 11.788523800543418 11.118389510703322 14.542953134342163 11.348802355214268 10.490102836242023 13.664773446852397 9.779634636853007 17.157085448911285 19.658730082092177 18.24378280852594 16.03417951585819 15.124201753616664 12.479437843946437 15.282572730549726 23.65744424768625 20.3917301213676 19.19466835788517 17.624033468031733 9.723363851966822 13.845003116616242 17.031245699807805 13.709176388055779 22.052048757885043 20.361548048282287 18.79107515678844 14.061429332974258 22.108840037456186 20.10025262503564 11.7701134325699 15.83663107306964 17.69932086739472 13.521646114492667 10.665853845330473 10.973303229790746 19.432643919238217 15.987287436346188 17.672634464501527 15.463656006188653 17.902369139857285 16.465978617201433 21.129090990365917 15.077071456798002 21.4018974978508 19.527045036517155 17.42475391259034 21.242151015706796 21.867384656746406 14.597200007461437 17.36138233825833 12.352226025577147 17.662470952762007 21.02692861062418 10.028136624500434 9.445013350443404 11.68712633242348 15.599784648336062 20.017372979519255 14.911726774590463 14.866587578220042 19.761802978548413 24.80909385130881 16.652466772233748 15.379654072104737 20.693905806150273 15.32623883495109 23.197542650952695 20.66542132529464 13.532791176155433 14.544857655526023 22.751381921859263 22.45109098682172 22.895384079647442 22.943974332473367 23.18572177523078 13.514852624836966 14.532842241890075 21.698572887910817 22.961851029222263 16.628440368895568 15.783868835944931 13.553600083280402 20.01945515599179 16.84772324229885 18.54401461132562 19.642151787066172 21.411331925752272 16.103237367386864 22.087585528161984 21.343551565310527 22.13689640042005 19.42886007706902 20.634656928831344 19.109789306851617 16.492316250354182 11.991220968041006 11.056043736546066 11.582133103039611 11.902152170638528 11.710514396636002 17.797127425874063 14.586949556370039 16.96682806544765 20.049813390931725 23.45615056519482 25.094989372750884 17.604418705186998 13.420382898170692 13.280850513340349 15.262547344136244 16.64679637082248 18.437002100027776 21.670111132946 19.394719291496365 16.4614444655791 16.946164124741934 21.977115092640478 20.04871832008037 21.626178040729737 12.584373874001626 11.581872603131155 21.379877728559507 18.452430938084103 16.807613252714322 20.46777896660765 20.90494781205314 17.715979484411683 14.61616913497875 15.748861643303323 17.925347377124577 22.374785410755308 24.497165239580486 23.52572156866353 16.974054129266275 12.710458103682177 12.005259805939057 14.542331086196784 18.54817832027207 25.546015347488556 24.15960285380447 14.313108210959875 15.106666816853174 11.030391878444568 19.13517022555578 19.40739515687802 17.62788823993926 16.162579928840124 15.03920081431924 16.97902343908836 23.75261330441567 23.154844280843836 13.801762985893577 19.710067951803453 21.670302827703 14.74507856030972 19.351057065843506 18.008771290127644 15.942554538521744 12.334714209704883 14.958522565846502 16.61717973975252 18.11489631508101 15.429718418890788 21.764472209207216 19.036170450716227 14.887673536953203 13.830747393596091 13.806740937635304 21.53943310381066 15.773868137586197 19.477517413973718 24.201107767580467 19.94537899811828 17.19034507185258 13.364754547481006 17.69076857849228 18.284645167291547 16.99962102300498 20.2206879741297 19.142762955718005 25.136141828737664 26.191292955559195 22.628924312455947 19.554745541145362 17.175338332485527 12.994364918965358 13.015949581238514 17.277393953199955 11.894621189658706 12.511014952868258 11.51740591206188 19.1442633460106 13.789653649202792 14.614118143723726 22.515297969890746 14.115477522061227 11.613661143988253 21.91398261603135 22.317247663043215 13.071273670482928 19.459901374855725 13.886973523484896 20.236555298931016 25.20415816371451 22.649482655726707 15.595403807411445 14.803538221540215 14.043077407316861 19.60599964135975 13.467832205451655 11.44913075126939 14.334341274321098 20.882711531924603 18.23075856195512 15.900494665940366 20.45163414622984 16.24510467198496 21.628832179969148 20.91019402891096 10.587531018130388 11.351500575985508 15.514752942575202 16.034952926086667 14.464719182165464 13.140477660259714 18.91053276173506 12.068996941807654 11.746369184459962 17.155580600442363 9.727607394021485 11.958914231710745 16.383599220659786 19.30870680770261 19.9662171208219 14.529014609519935 20.63149784333966 22.32146217283852 16.51759893081663 16.37027480512568 14.630753295841751 21.740149046446287 21.851041407637503 20.718528122053225 15.71965564675365 17.278952830657552 20.674625037551728 24.136672426689607 18.761071759762263 22.248942247543475 20.69090163968928 11.957589828769708 18.328903111406962 21.483743796569087 15.413154534325788 18.183869272150623 13.691931446322783 13.184666090548129 13.173865127996038 11.347522793486535 13.82916001682753 15.463826301722412 24.06308999685525 20.855889498081684 21.805472584058794 17.362791895887177 14.517807198954525 22.056580715043662 15.050827068812477 20.127312736206278 17.077360562875 17.127615895150594 15.478614593641765 17.60748386903572 21.16482017927999 16.29537537726724 17.561030704720274 20.516916984471344 19.975852280000005 20.421905957879865 21.445615984602213 21.282659501656216 17.584824567791397 20.0650148937121 14.306232096330174 16.37432988734969 21.373162961144775 17.11348148807245 21.394932270989635 18.29239346852336 17.567618038784037 15.550993288628677 23.17273145457412 18.887080232632403 17.791228870850013 13.418803170115783 11.415007252477428 17.664181882384813 17.369149747891328 13.441515443310347 14.438616645860787 22.7162520377428 23.310383693038393 16.520280209209318 21.613241562276237 20.18985909702273 23.739498836616896 25.704874798877384 21.88034750323758 18.94448920825212 15.720985149585902 15.615307867946001 12.91436857817865 15.711406258714737 20.93207529321564 16.793477016894137 16.116321456536653 18.81279459416953 19.743191510417383 23.39181950335554 20.196071154500174 14.061999341583183 11.535520154691033 10.148852327704448 12.052380951352497 15.3580163809401 20.094523283524666 16.560286436560627 13.940480614098739 22.90689688345871 20.217655495167442 24.14827177880285 24.210469643891976 19.661555288298835 15.889714711600996 19.46105955830737 15.568511510227356 15.286992770152583 21.106401600979968 22.255482864931228 19.495806763997933 17.742098215370035 14.855095077458975 10.756372770820398 12.360281514282843 20.494603976292627 21.788632602681346 19.013382433442114 18.572012827782004 15.107650133455088 20.731306328862914 20.40231155720522 13.463609138490531 11.885236308368533 17.216789063535476 15.615562101341418 12.690591791434283 20.794051391098762 22.40728356079176 20.914647227539486 15.235978904519069 20.735680925219185 21.433883533043858 18.173624398551933 17.56501496642672 21.838040974549568 21.416490678293382 19.58672441276212 23.579934526522198 23.347983004812168 23.607294340605076 25.467392460071725 26.94889678430985 24.05782662708876 15.887744806431625 18.37396610421171 16.29566899773532 19.18600561656582 16.161808138582636 17.43385462282488 17.863307499986274 22.292279869200847 19.53773543203839 16.152851598786707 15.803847334070493 14.160244861575219 18.501935115029323 14.267662570721795 19.344587397699392 19.013055946537055 14.527049662742716 15.79058560277243 20.711161196075736 13.702216882260975 14.682125261638566 22.664415316005535 13.33800687802037 11.952731382338396 15.095800382300077 19.145800254616944 12.596440931213115 14.710428192613925 17.361346039402633 20.88735919038802 25.11449121379306 21.409690672341792 21.397480002929058 17.207763876536905 20.202420081645062 13.91007313600017 11.25637066774321 11.891053976782352 13.052470872932247 15.168497768371818 20.177495447379393 15.79186002553436 13.883973577572522 17.817331267310177 21.594654356493816 17.923261884390865 13.447958384321073 17.330977319259862 19.139950182987672 13.54962631801096 15.214129415576874 13.674561599656219 22.26379511970437 19.512095334410933 16.391745122481094 21.259025254320484 13.926261336407189 14.175741077965203 14.294947007546883 20.12296420004369 16.73454019068928 17.892607343761142 22.228358472240238 16.73205804007707 13.727487504802248 17.989437216930984 22.753136510593198 24.80499127740658 23.053025782445168 13.369704268120607 16.013829452835523 20.985533375251492 13.81447078014213 14.707838179834177 12.012544507500165 17.113303591815495 15.999048645873005 11.707513929435073 17.332942256314155 22.194514328129017 18.841808906490634 18.868788299725026 11.98466452960802 14.306425589835852 15.015480228027473 19.88835324994646 18.59773006911005 12.032235800700374 19.412297287054066 20.731462693584774 22.381230579735803 20.84608471822356 13.362307840387682 14.949970719966181 11.078026236334395 13.962736827301047 23.481814963479906 23.20588128896886 22.36149008819256 22.62326033896899 23.921295976654488 16.509246645401433 12.047914151577299 14.07683713739198 13.635506540637529 12.764575377148375 13.197278291596831 16.605040977151138 17.033167198683813 16.751490767369265 20.11766328659138 15.405929655709741 15.108249965583392 11.746786783163595 17.98524035979343 18.487541592304538 16.27576697230935 16.631356258486473 21.708378861581693 20.090975190670456 20.99023812119729 13.94428109078608 18.392327818210415 19.552059750601327 17.596149258343644 13.257483858966392 20.3566918695043 18.512399201752697 22.34193262000766 15.380421261179277 24.029818951678575 22.956259531453483 19.791599772140696 24.07033605819636 19.67070596270842 13.252718726057324 21.401236492466246 22.344796520886643 20.673520082864204 13.07209068811711 17.576960847154517 13.240115683459212 10.83329552783842 19.760889835447372 23.369738324772797 23.377127726864632 18.860598706508984 19.748751749212694 11.282860893798912 10.760836457651974 15.976563182942728 20.561571370538932 15.305277774648088 16.045767439337542 22.25127261213189 25.393152678061448 23.827064610326836 18.020101839453528 24.706013941412483 23.380833487492282 14.415380917333923 19.638906702170583 13.074665787286849 21.719427910808733 21.632349624424453 12.262708758757167 10.243082270245614 14.31976902019577 15.186432870608925 18.745790078152286 17.500032639751744 21.74276418761061 23.92735615185243 16.926929089853616 18.643381769746586 20.61005394103661 17.649001650769446 16.875998995943387 15.571234757631311 12.02786603467457 12.112089447654718 14.093287833662696 10.779939739270043 12.59983658833677 19.02143700758289 18.72095565922237 14.914951327994808 20.822691427257308 23.945623926210445 21.006151500202634 20.790471649258325 17.793241999771897 14.187115613765942 16.902191702174406 23.91037760278285 20.540146775519734 24.45744578755428 24.837691164433416 22.14695553851491 18.073154080206116 16.585388327685344 20.260952831979587 20.98887236427037 18.507332006349973 17.158824009492076 19.134315692549006 19.947293697909405 22.548361045251795 23.424927009442754 16.49814142959254 12.094743391434541 17.463746246894026 21.29108216968466 15.589834146003449 15.322224514671667 15.325288940472731 16.424530811856428 23.010608770371157 23.63219392775121 17.6878369870923 13.148061898209637 18.961556996902797 21.425956683756933 16.756592850623882 19.047932159471458 21.784932007105404 19.484686750626405 14.001187273412311 21.879526407467154 22.012589978612816 22.040432751130872 23.517851777428305 24.647597739714676 20.028678351404984 22.348540746768588 15.990058861941735 19.54546999850289 20.17012746792641 11.873760427509014 14.699718130120198 11.218068805568231 13.679967010043855 11.789312575257698 14.448483311806303 17.4623970873199 20.843859641019115 14.32106113546019 13.93309246582007 24.08527312751384 19.061871563380414 11.853113410129998 14.85278569416808 16.915079062001176 21.28358058539051 21.461022745772183 16.30398458568373 14.06456803870182 19.66969552575668 18.85132208873218 19.771940380265626 15.758042123683998 11.434762984631156 12.355488439130822 14.1097210528593 16.67360057432593 22.229276715847185 24.05298903921923 17.606972959693735 18.070637706568764 10.459101273579039 14.642074874183614 16.009640900884012 13.554788039533495 11.780867074501314 9.304890715331359 10.524206933588852 19.71134879067812 16.775664760712072 21.68650520401708 22.230695716320962 21.983919246434812 19.060655503310347 16.638639475389578 20.95849689320154 21.599680754741225 23.31858710713573 19.53169245837995 16.989522485966653 24.657621351734125 25.019677152624844 25.111249551761116 23.26152352561896 15.796214110219152 20.968698454636204 14.288969540034772 16.874431122000455 22.850554271037403 24.462780444185846 18.460832555260318 14.55724207531438 18.40349455468708 23.061156788757565 18.67453996166156 13.441433925488726 21.956751693233933 22.70351191475119 20.578642365048463 13.66100410714896 20.03298632599104 15.624409209387577 13.111501209862013 13.643010443409093 16.691886594719545 12.32156188508375 14.875121237567894 12.671523610086405 11.808250128990856 16.423270458193187 21.227238505764685 15.452695881106596 12.760713244714934 14.981716296557163 22.121563134367793 23.171363057459903 20.843227020341615 13.657496176857457 12.454427866900392 12.753338317053139 13.67546966869746 22.610490049399047 25.27539339128108 20.60052815051317 20.161137917952512 16.168429910365766 20.84645398187643 11.613354848624134 11.439757642974232 17.70767708433752 21.940613859922355 21.672870070993355 22.998865212257954 15.459966229698665 10.842078287862128 13.422553898009303 22.391420510999854 19.82985723219836 12.602716484266667 21.501393755002393 16.65140374780969 12.493282020077567 15.634024690039062 15.033351057379704 12.747053407203714 10.637837770231624 13.359119720331849 15.141968551507931 22.025387874567233 20.264506284309054 25.27379016706422 23.909768785430053 18.372928054767172 19.04922824052933 14.365653627586658 16.250189292425535 14.669107362151667 13.0647287530454 11.913479446359382 19.154771586749742 22.247929193324843 19.617091190954305 21.170763155228826 15.555875502070961 18.151499010580345 21.141264316054208 21.745777374910258 17.304443261817745 17.52745266589429 17.862290755299437 14.97079898417082 16.794058918988537 13.833540428298312 23.044798531136244 20.182194019233272 11.46363045917006 15.654136835132363 11.876075888024593 14.645967171547614 23.832849863005013 19.41363988053685 13.738990571426346 18.74024538064646 15.41848423887544 17.812827718555837 20.07447676742533 18.924233676756966 19.5620959851989 25.205853367105735 20.03825726069325 20.19517807395814 11.049888829000004 10.147381206372115 15.421249665075237 21.91853640445137 19.040056347150696 19.70152190046213 18.973019070993082 22.001825277571577 15.850395688647584 21.739308109284174 15.49864947749542 18.94437387385692 21.859562486101506 14.259370601584113 13.686362874543777 16.571629470779854 19.65705831937007 17.626924450328136 23.058945795963893 19.13620474876966 19.68225780772524 17.131581295517403 18.423841814426932 23.342884847925404 23.530700813760987 20.87967408562904 13.158805627627565 12.01976662957052 17.599565885820752 16.278205561880448 14.110845641347472 20.664373361806803 19.81683919172341 23.5318411932182 20.01022648073471 18.8382011270282 23.133432223301053 24.946127848127926 19.554468927149266 13.835383278769703 20.510419690700004 14.065667846128518 16.103169604450972 16.531185572324233 19.475586533244165 21.40658699892209 16.346751819170482 14.823912713196867 15.171457043491298 23.416657514608644 17.73656607633771 12.096851196962058 14.364222470823986 12.72141002244897 12.008439255157452 19.158301468236 21.823550741121082 21.966787109083477 21.106422422795703 17.004139671853974 13.67743282568995 21.507063841273965 20.133013318627984 20.284429366076626 13.114069073855648 18.527638613801443 15.374108331257581 22.46586067863077 20.722505274745828 17.63819609247239 13.476862191003903 12.957964134982916 10.789744098811216 15.688691277226576 10.976655014043692 10.60935647779797 10.347792027077274 14.071320946516089 14.474485033143281 24.19955320469178 22.965274436697026 21.899462944732896 22.091386656099914 14.324775439188738 18.460231246927965 18.092935655333143 16.391391381802446 14.302685896144157 11.862877466955636 20.71983232226805 23.89405508245533 25.5463470775921 25.525913267804523 21.419350519228452 17.485391901949704 15.298752032106005 18.990970899476814 23.515870320120595 22.328233741380476 15.40533468305013 20.78978623236791 22.816674218690398 25.648739830109072 24.00045591609084 17.022103098713696 17.002832452432536 14.76460989155246 14.402331992776165 12.592612032994712 19.47728097911894 16.12603966111133 13.865495861550384 18.496897851577113 15.325745156801888 19.61386947365371 18.767748910363192 10.410431591377117 9.323529576336735 17.370519008749834 17.519888340722556 14.899132616212201 15.984891657015584 14.823707120178272 21.872292279702744 21.46443746658003 14.385681834518268 17.8106713721411 14.869960915274818 18.243306604291675 15.010578487668827 21.114087415776954 21.109363903372184 14.71724947068348 15.077940119248147 17.990982346807613 19.326148648998988 20.002162450476565 11.705972412686089 18.012928143782645 16.5960590930143 24.820327621928833 22.594458718585795 20.044545161556748 15.431495170699824 14.436420722638085 16.966301012414252 17.150395187660596 12.24797156816687 20.426553335290652 16.03408767978773 14.549650823090252 21.025123271780448 20.483817998929602 20.150468696350714 13.479260655904156 15.451742628555197 20.36094813447905 15.956666573832788 19.738931041016144 19.5776882689214 17.890427537256745 17.10518150230536 14.216084928476926 10.866274802717475 13.04703159056945 15.741289726689294 18.973956715841382 22.68898417880947 23.214535013868733 24.89701705605126 23.09882916311906 24.473582742680236 14.687633996149117 21.19066717890213 20.389589407816484 23.780879389815066 22.881342041843293 22.2067697858421 13.493778549803894 21.75721626678994 23.039322186560838 21.46733801215332 24.119213211945375 18.591226354359875 10.822454936609622 18.201696299026917 15.418106159389378 19.393738071321593 23.920769825348675 17.962564149160606 14.900635327611894 15.799166457541189 20.240985185080767 23.6897544478628 19.400996157723792 18.141613459809548 14.998215305358125 24.789596404610585 18.595603332383252 17.113705459597696 12.127810073068163 14.237757689397714 15.695737659993846 23.85531929819024 22.604114126022836 14.17740182321159 19.15787944757916 20.71821748023902 16.89198057742739 15.580281742162617 22.43013766316698 22.853533614299256 19.441222033700722 17.266366181560684 13.974913132009108 15.998118147627899 14.6926990406772 19.907952928868863 17.22261020791277 19.078398083272003 18.042891252114046 15.240367939661569 15.831107079779516 18.295510043748408 22.416868341736972 22.782811051294374 19.157276188445135 13.864017493807825 21.189001752644582 18.421305208122085 17.04328108763211 14.368571315173227 12.72046820710094 16.08640641617922 18.38230560783212 19.873370482581837 23.185685353659437 21.82999971591131 20.0400641442732 15.767100478357424 17.048929452893056 20.43756023344627 15.026392752919715 19.035730552029502 19.329782793181213 21.984584547009845 20.42835099553265 17.17163506813067 17.344278707429183 18.13045174956163 22.480756770518372 19.351696759689645 17.345426221378837 11.625314105642694 11.807165981314437 20.425038701419044 15.344743758396241 14.393376063908807 18.697339429097244 13.895278181284569 18.593306394962028 22.99130115135614 25.27732508819745 22.361783384636094 19.48928211705684 18.80499049389705 23.268172540498774 23.765042629982087 21.15717750362794 16.41522332838622 11.996601786100474 10.108502213123641 12.366459991152084 16.508870270772803 14.130631491467824 19.852011650014017 16.622813910648688 12.012921740168117 15.430953821377583 23.764347373479602 22.716540026342315 18.868079354774306 22.581781064253775 19.568313563598853 14.313556031996063 19.534972608067108 20.745573484044417 14.991654553508827 12.901433396971843 12.61441987289965 13.171938244125629 21.545587719999695 24.11849276744734 17.477326582416516 14.136333370141218 15.55689048079422 16.043345592971587 13.68033256710843 15.892957797676116 21.777946814406906 22.361787651841453 19.26937421460887 19.052614315343764 24.03064443000929 23.161458547103443 13.423307203747271 13.39102578119236 14.506389516059238 17.147975220876045 15.497823810294465 10.432658040449333 15.218013739818034 22.337328588339464 19.584896198404365 21.108604690762036 14.923021867681964 9.446715948026872 11.31601644348505 14.761146489055086 18.988181834242763 18.835710679960787 20.330031806531043 17.175837057792535 18.14538567287264 21.0348587462299 18.657597887559287 13.613140197597035 18.338601049797255 22.790851465151388 18.178150827480383 21.930064569630044 14.831942415884996 15.890105267716862 10.89948445697588 11.181283147720611 20.738206627132822 19.091384297054663 15.682578499283698 22.399049593074515 17.209424034546068 23.79891862268625 23.24740235002235 22.759595179547738 18.87087614352456 14.489365567980535 18.978744075937538 23.107645269625667 19.982716214095763 21.009140558818906 22.03594822643913 18.944929426789024 20.023877540755805 16.273223460652293 20.99669576980359 20.747422378571276 12.643825701254832 14.661088364162577 14.337617131147555 23.32168929555215 24.2663063265892 18.437338553342503 17.527810266943 15.737850800024743 15.984529758753556 19.410041776883627 23.257044238847094 22.35386985313577 22.275832586330356 15.946597267393791 14.984915578317093 19.99393790718629 24.002699681873857 15.376301837892846 15.841900418918959 11.720426755383748 14.081577453684947 20.015535310649515 19.525125685067543 13.92869237218757 18.331933219782087 13.29616204692075 19.64240021078854 23.242000205764295 21.053682956313615 14.854074210454376 21.590649540767423 15.824980178355657 18.324167014677663 23.98588217957398 17.02569426626001 22.454119620740066 23.35408996603019 22.45977247061624 20.463742084528263 13.475025924277377 15.68420978885181 17.371929419453547 23.980414658847113 18.37388585496212 13.800007247892452 12.309597588471094 15.782439627379791 21.68512148117072 20.581538396595672 15.413202415112034 17.231255416891678 21.340839054873346 20.574944677653807 13.32553036166537 15.581256664905585 21.217558034483034 14.34865979154843 13.317790966272588 17.58659330401334 13.541004116888292 19.59479579769258 10.282781447890038 11.738805077387577 20.291852009763158 24.42601572005713 20.50441450643063 19.404000903578254 22.785591368201622 19.557419386158212 15.200954511020159 17.76746222570684 20.444477685906353 14.900402712891141 18.297130634481125 12.478656464529786 14.164836870445559 15.011722361276702 18.234062652068882 16.732735480915803 22.092969511912077 21.489399114016777 15.466511741937298 19.632166968890445 17.690828484650787 19.93775091280603 20.14775564489986 24.996741366953408 25.309971633534072 22.496684540367884 17.678403475418854 16.17012252126042 20.163187280724745 20.681942533695263 21.392836514124475 20.090268891302703 23.836580343938717 20.483418008152913 22.57063048069225 14.985060082820084 16.85982051284361 21.32872035469447 14.49203679456411 14.68041837668427 13.36325012152724 18.376705396628466 20.407316515918968 22.67971841823171 21.7119835015026 14.176150304798675 15.02052265211266 15.865049459200712 18.44309223779679 18.426190896305812 16.64308602722673 21.31570052405576 22.1