# vtk DataFile Version 2.0
Ocean circulation t=60
ASCII
DATASET STRUCTURED_POINTS
DIMENSIONS 200 200 1
ORIGIN 0 0 0
SPACING 1 1 1
POINT_DATA 40000
SCALARS temperature double 1
LOOKUP_TABLE default
16.93988085788453
19.69873198090889
20.56672677764358
19.211874939483465
19.12689402652
17.45968032668815
15.327924357665715
16.31845906218213
17.63990432058999
19.390757979126704
19.583521574042827
18.544879455750447
18.25436502772863
15.670497037079807
15.259574104221315
15.87511890775901
16.993890739742845
16.9913532709033
15.496142012038401
16.314648045322347
18.752015443239966
18.76167036797774
17.853364592862157
16.758066022374603
16.035449092566257
17.591042439673554
21.55009565423065
22.629765816129954
21.28413859053593
16.834577518596358
16.3989622358196
18.22231290950337
18.65608183437768
18.79174679328225
18.08569015685959
18.241001006978152
18.226589148157267
18.626346964524853
19.95942680857366
18.670115442055742
16.12613567747006
14.86690025782614
14.857936800800934
14.37587270865092
15.36861636797489
16.26922842709837
18.046589517624017
18.12199682986721
18.9699183124176
19.371191435265953
21.21437678981867
21.388289905641454
19.22875879730523
18.099684290252352
17.56873931766318
20.632917420367118
21.7123291968433
19.36309328648142
17.81468799491721
16.574680012466313
18.69016225897979
18.679792117589173
17.88180494891234
17.520600803759045
19.019644000115985
17.607232189857896
15.021650052084079
15.485320092975677
15.231458164096734
17.49330853163519
18.175782721839838
17.937717296218974
17.925893076973725
17.240061124979878
17.821424215099576
18.198421361933928
18.625239752137368
19.67251380109503
20.416762654857404
20.1945026011993
17.8417940894345
16.905183536138768
17.660439590184634
20.90211160614947
22.756932874578393
20.946811198854338
18.606519251652504
18.533343065546315
17.26634620449216
18.943509761135598
18.624434327663387
17.384503573027885
17.761250500607606
18.398564767187533
15.817548927204184
14.65272377366852
15.22994913074747
17.282850831221474
17.894652989206392
17.461156515431664
18.2964369214415
17.298227656340796
18.090540170602022
18.14283976969813
17.76252497367353
16.716489510590865
15.941811378405276
16.275608421193816
18.57415843339228
18.47410979267164
16.775486678759513
17.64764543084502
17.473892044105988
16.68080732113441
16.48883493168115
16.674397117805178
18.41213619101065
17.46592456244545
16.70956619177141
18.720444426202917
19.24609915664687
17.928155090738326
17.344906105398817
17.370418886351214
16.601183096808715
13.937926302639742
13.158475695220075
15.270959910243427
15.505288509876484
15.375730307101403
16.895912741528104
16.148151967219153
15.85511187739205
15.14229846881354
13.001361802280583
12.316674908890185
13.15879655654844
16.24833693165379
17.504205782732917
16.65199261673968
16.06976942862782
16.443009514857923
16.208159745307455
16.067472502012546
14.198190709742475
13.871355196284485
15.804309579823823
17.98109443109974
17.830383259638765
17.200017443988223
16.71090981014466
15.563480612643843
15.557813053439604
17.215372194838803
18.880805831885418
18.11145244580601
18.726915767550107
18.081224910560756
18.68423399354933
17.435197333329675
17.485251971701654
18.828136592173976
18.908210161188357
18.38837904664394
18.16616482309701
19.627611098924792
19.301498352797864
17.275841961476186
17.118014369883063
17.363411052241183
16.97107669211998
17.05918780252837
17.22247634948797
18.376705463061764
17.459538514930113
17.5102100610897
16.716930636274867
17.159890584957
17.01380696248669
14.45661108307063
14.353778435366536
18.51829745737865
21.454268994158944
20.6438563390759
18.70060026970756
17.753954496977943
16.976734828865023
14.965427258889488
13.502622117655358
15.82580417600201
17.119668621909828
20.332522820033645
20.772035578448207
22.079528302493184
23.524489553844596
22.62558443166833
20.072201857814076
18.034445547045344
16.92078874801133
16.61770079652284
18.581350917387084
21.354420068285805
21.680273581696802
20.239080057386182
20.843704588398918
18.784818608228253
15.471685501716754
16.072484311962537
17.481183247486438
18.489834171731886
18.84715471485909
18.512633478651644
17.28781262215159
15.117090034739228
14.903615256783874
15.936963301771794
16.277579374625795
16.669711658682782
17.67855737451876
19.096560794065986
19.771554628563486
18.231416721127186
17.289522256236516
15.807376677570986
15.792658579383467
18.528047527131978
21.13212127492482
20.73008028500738
19.039455057807135
15.372405641274169
16.024340873110592
18.80961703122047
20.569001614376074
19.852463725388013
18.082209936990125
17.024753431055384
17.383208749197898
18.89037008875444
20.56915020155933
20.602225930877417
18.697015206462446
17.076803786585266
17.222858267340154
16.464633406156384
17.573215245180865
20.012345228527245
21.20123740951045
20.005743851721483
20.5809610340509
20.814193371724894
21.992043406520207
22.05145876226346
20.28423553250083
19.3359848654391
18.07591360990067
19.80492516370831
19.770886974714205
17.963699331831872
18.48160950605546
18.10092649700644
19.822856833377383
19.362762347892502
17.996364210058026
16.494540602065726
17.141528455702222
16.494092037969104
14.677176115670955
16.093541540475965
16.146812977259074
17.167400043346515
16.63969984580358
17.04147141602902
18.24101647035494
18.4272273879306
19.196834453856923
18.147774763318825
18.328117450954892
19.20988437281561
19.955126652928424
19.788959157088843
17.205120392273955
15.97580150419906
17.11722278187638
19.095458915024142
20.24438872541024
18.52629496655856
18.01645269877999
18.80139985436211
17.105697010882373
17.891141069972715
18.459699067823806
19.984678965726346
21.67925527406595
21.83927659369283
18.612071688051447
16.762224950881482
16.176042779468133
18.839751048620798
19.12844734788321
18.36000751544774
18.38016841584029
17.768770332075558
18.791345717018533
19.71764828649986
20.509927129321778
18.97419082087403
16.94786081986625
16.26495112057019
18.02265581159769
18.061157020108677
16.47383768208128
18.199715829969712
19.931774450829806
19.84469935261862
18.232622685339916
16.642294553816217
17.973707841472415
17.151552517864346
16.06676637337047
16.9601132873553
18.59187978795925
18.77873851724907
18.10779284792676
18.248028092272325
16.495870488973935
13.620032654102458
12.21841676445184
13.043528516000865
13.94328087120675
14.035780306400556
16.026766322532026
15.670179418877986
15.874869889182508
16.51361019767504
15.56526043773572
15.175270460558343
14.668890073334099
16.17223191429663
18.57307171051975
18.574778274490964
17.52847432909795
15.96414399692897
15.10306496349799
15.521311021264758
15.151902239990873
16.033200521792377
17.39682623062027
19.191925290756807
18.976171748836254
18.260849998468217
18.59285308922047
18.51499047622953
16.950428299507156
16.982092524193472
18.905066675913634
17.222778838879954
17.157120236599777
15.780781338283566
16.10959328318131
15.554002085759075
16.498441054160743
17.983984192809178
18.649100476712988
19.6464450137248
20.355048621395813
20.795379810149342
18.266549261371985
15.4495610048824
14.217365029963497
15.86525613860822
18.37473632724437
18.286187017830546
17.712574322302814
19.15433613443638
19.059755455389354
19.22502421205677
17.7187868404139
17.19101465411141
17.271638718057023
14.464194971602103
14.513529900323467
18.33849231893334
19.906847255763726
18.71246699057796
16.958267190153393
16.45021406570609
15.716267888280147
14.237952034905426
13.808382861189337
15.948269644034756
16.292697844902705
18.73039647188304
19.269337270795308
21.918206790516106
22.95145686387828
22.860340239659322
21.203371455387032
19.225444702540884
17.93176262989365
17.677414412166563
16.40799898653188
21.06535304296189
21.70399751573067
20.499009116818783
21.475430501043416
19.845565512952398
17.26958952550795
17.199400457985014
18.53481800311898
19.837016529432198
20.004094008875235
19.31714987412653
16.43025340835545
15.542180337918673
17.457844606450518
19.274556132146394
19.75506544623354
19.36344897304355
19.78151422624676
20.341102740505825
19.25384562005386
17.11656313982886
17.522742216348682
16.679691205927544
16.851627881979734
17.639999363889302
19.422667140688823
19.134103525591453
17.199584874409062
15.096187444550349
15.674710446996949
18.4906950912548
21.281657399797098
21.170959073023873
19.26353806380546
17.827628334929173
17.666038191821148
18.587111233146743
20.705699426161093
21.872276153998286
20.972541817309867
19.742576499020625
18.079080943358726
16.972330310951026
18.472085187551556
20.943097073434874
21.76530720648278
21.019427781235986
21.106831639847133
20.7986444861125
21.558890958850217
20.182514823170493
17.920668764518034
17.41929803805464
17.40369851052123
18.572722797971405
18.129890947710845
17.62082921444535
18.358830942263214
18.277155077268578
18.320566890620103
17.49461108991775
17.139831086123408
15.098959961054975
14.127726734534566
14.322392997135442
13.924706178872617
15.125705254161804
16.023663365089337
16.378136725862973
15.065643971929166
14.852557435543158
16.550423952592283
17.68459851039258
19.305888932960812
18.550962078378905
17.841579925671915
17.418218497967327
18.927419120153655
20.05601086957102
18.616963017036692
17.006281363259557
17.931015486820836
18.646216531321986
18.06001175330543
17.63713445791566
19.184941728334962
19.76241913166844
17.05314026005034
15.668248080620993
16.429715816173623
19.323122833973006
21.68039504700633
22.85203876694101
21.414968702546073
19.040251210299722
17.265920659344243
19.038999052188597
17.700219957182693
17.46780138199307
18.7404468806938
18.717913878541147
19.308738588539274
21.119888139118963
22.941179756068447
22.360543667883086
19.993498595498195
17.729793370354233
18.03052062709436
16.709759882746763
15.647785249415207
18.147407281159705
21.047317976886387
20.432007489513882
18.246545998675934
16.177848355370546
16.430916626038996
14.8113464217213
14.728391606289494
17.264573706389907
19.296865721150567
19.2246564396119
17.362870113128192
15.974407371479906
13.96775780328567
12.670581382102247
11.615421295185358
12.627132003019657
14.55772552035874
13.908163192857712
15.659256610845713
15.088264155902493
15.261360002774573
17.575819992318287
17.299925177683765
15.84135965583648
14.620944774028537
15.08636429416826
17.163571526281842
17.566268127132737
16.891915586698342
16.547130800548913
16.69209719859961
16.850012092542723
16.79464207342738
15.984886824360586
15.823942417606316
17.420315264071778
18.22094675731708
17.286028795816744
17.902208913489673
18.344506471059102
17.053849441762406
17.241633789238787
19.291549328920887
17.22343746431079
16.049179234749786
15.038745694220092
16.066438370433758
15.424034143229614
14.909698122048738
15.383068984082563
16.753679859838147
19.38084591566922
19.731715343154146
19.78113583224795
17.468616875259084
14.89505540874871
13.719628123241998
16.62739217029975
20.61206846786654
20.893844270442766
18.69034273236696
18.311549674067127
18.832296132816055
20.10590108209417
18.87161113535226
16.333822699909565
15.475925554568505
13.632188343878465
13.820749581522248
17.766210726262337
19.21673602307206
19.30026472704862
16.949823867239715
16.060943763065808
15.766367127850623
15.513328898708155
16.333894475526975
17.233072193514197
16.272824470593676
16.73446212683308
17.599162119775265
20.751266610812753
20.788951155699166
19.73846193144207
18.109011954760984
16.941177214419398
15.445018268947676
14.529372125372646
15.276535815421429
21.009916885078397
22.55974861602475
21.700716749933992
21.770542522648306
20.72695046563476
18.668070816873666
16.661560870007854
17.408353247889977
19.401723508002274
20.514150831691733
19.644783414824875
16.677440554056247
17.39103106862051
19.70380902415634
21.312010141028644
21.45153525619503
20.327591857444617
19.33031465224113
18.66264178980085
16.254566785266103
15.159531840660664
17.493415846849917
17.975946334958063
17.322477969157873
16.249549752975717
16.709806889573304
17.4926508934457
17.79526803252377
16.419227979669287
15.289953918218997
17.44080149059998
19.202272219928766
18.856485750850908
18.08464159075096
19.186913076267743
19.742165909092773
19.814256222333544
21.124753606965275
22.019624661774426
21.91831586453071
20.61018332249237
17.71988796378345
17.058482736088685
18.006446105241707
18.568698258765995
19.234630291803526
20.220039700825307
21.131685149125115
20.904393774147636
20.18421582496426
17.298271021158612
15.79489415637937
16.462082464704217
18.199994042755897
18.6603550240957
17.768393980512045
17.940184639307308
17.435684780271927
17.16077831924728
16.601078352319863
17.09639943336033
18.036679831685564
15.832306059055858
13.975926239299168
14.822860949666175
15.290044205737269
14.888073589687673
14.291015829419162
15.01960134380064
15.457892120566424
14.631332280287978
16.710445914924502
17.94354310037539
18.02080920679584
16.901791286182686
16.898996546373965
16.88426514768253
19.128346292687368
20.547602953450685
19.223645081523195
17.645245911081055
17.379756172405884
17.387842822125886
16.29675710039751
16.760330354397194
19.26648085587027
19.727789262253264
16.538833182615047
14.868137862409066
16.127993606252737
17.592039048124693
17.986030300914923
19.6671547771976
20.702783004921567
18.775991804328847
18.162697354726358
19.5339920628837
16.92848271086884
16.916720303200467
19.068841370304845
20.119084849995282
19.342360953108148
20.28990895506612
22.1003862221706
22.90136502513964
21.42110721139564
17.856816958631995
17.463885723544262
16.818655514470688
15.177476141040435
16.195700021546944
18.911202640006636
18.41154930660682
17.50783177675288
16.513887782921408
14.877351976200806
13.032180228958591
14.23415855369275
18.31304160251108
19.69327209422282
19.63391480820435
18.275444574707045
16.87381649809086
15.56626198619533
15.315354298142626
14.296554614462368
15.197732761749222
16.340676138815276
13.91314582806933
14.314151064876379
13.197991681871118
13.587462684839798
16.540866526659528
17.302190427844373
16.735095819254234
16.264929366783296
16.973161276778253
18.489505206309754
19.021477686951503
18.132508790428542
17.6630634037057
17.84133717395728
18.577416475682572
18.845342327347016
16.966366385921635
15.041588015546353
16.19154769855855
16.783571469718154
15.988500809918285
15.73150832437117
15.695446180654917
16.213094406592322
17.6829793306882
18.876988183304555
17.726768347000448
16.403899513452092
15.432811151157269
17.36897246894725
16.356154494045107
15.18435416118384
15.350073546986723
16.12362701978416
18.96379985506511
20.132565187901037
20.385007994552417
19.317502471038516
17.128512528419893
15.217260118774403
17.26944068228692
20.949716450022144
21.604176076857836
20.237101806386462
20.02333528625227
20.387334401813877
20.209822033426697
18.08119849446166
14.874277748988028
14.714785129005284
14.343936258211182
13.662038484049692
16.59587218587238
18.11254748572335
19.576104456727073
17.25886597294843
15.256117346729084
14.581822704412401
15.206447346319015
18.36567882445867
18.572616276294383
15.668837278157937
14.031753322444509
15.07498390442693
18.34134376171977
18.781874360634916
17.330708438650717
16.32489387534875
17.287393280216236
15.525333803917384
13.16384359910106
16.28940278075507
21.298119369997053
22.88825876644955
21.315406975206596
20.0583937615337
19.193128084859534
17.822653040166195
13.756825494311405
13.107668253123936
15.535992637800135
18.587235547649612
18.876410544374405
17.355048303790657
18.46689103976759
20.153549755071577
20.215793092666672
19.653334084594515
18.563887807498013
18.45222935332861
17.012167290322076
14.699759089552755
14.801951180867826
17.753756661462244
18.21798097372066
16.768401618720507
16.95110478003744
17.648062960548604
19.39925991863385
20.000995406304792
19.296548110264276
17.575429013266703
19.018853590299162
19.49309935800472
18.74101155037812
19.03016653238737
20.372176061886126
21.05008666777393
21.31337627747025
21.450177087284153
20.57652320185717
20.39967002547179
18.49285539784842
15.324165079132904
15.55151375022233
16.483138123637495
16.95203980097512
17.803790684333375
18.756245009752796
20.406040564657562
20.365243402226785
18.129009338487446
15.669175871287159
16.763403496359892
17.90663014093804
20.576347540031165
20.556315702669902
19.216454171765207
19.0301205526728
18.196011740575347
17.451852084574845
16.419226279900176
18.05292148005954
18.633107472571172
16.632254505241725
15.573918810831982
16.510631662088457
16.2817114570034
16.162473123198076
15.470481242196055
15.889765035062705
16.548229907184222
15.11655873815497
15.758483336352391
16.78367026021399
17.28014944040349
16.074135509710008
15.166275371749004
15.120339641919461
17.672015127869006
18.749526035236293
17.015073323041168
15.415264424211836
14.828217510787958
15.66206357007785
16.201350954045687
16.372438892262533
18.086480482604575
19.137604828533902
17.269462955455392
15.57044996432607
16.363487736646242
16.35796744369363
15.634499272491231
16.69835859207968
19.042942703398968
17.905197440441018
18.95750346856855
20.391763351162975
17.845737022379865
17.606388021506845
19.28686406912841
20.11467762707808
19.298621714131446
19.33126364961521
20.17056672968546
20.771993789420165
20.82316380158961
18.079338669805644
17.688490314148286
18.623694913890766
17.095093752298933
16.754865209410188
17.321832384396746
16.8117796054714
18.063197863263916
18.658919933887553
16.2665012848598
14.445660790126265
15.421059507655828
18.336857158198924
18.24896866771765
18.121263603949703
18.438366220684674
18.86489229081105
18.566127001165814
17.65979409431854
17.658421017360325
18.684772274310497
18.206999000198294
14.109021377471283
12.904700102384341
13.382690811855264
14.38073682783681
16.018003105131292
16.211953932131237
18.06952092084693
18.98616800004354
19.69794466280735
19.52373364064696
18.876421995996356
18.79726168694305
18.383618374859786
16.64491950580316
17.61007237456808
19.298913750748753
17.239019428675437
15.203090431794957
15.378031829475546
16.070016483067114
14.22343371607506
13.90355906502923
14.599994114500236
17.122613442614085
17.810423969486934
16.905239636069897
17.400803737417178
16.21374261448061
16.51225067546711
19.64776694727751
19.66791113227236
18.645995651127745
17.882763822005803
16.832144016154448
18.04106368089333
19.562820884704472
19.63460861304302
19.817930757439424
18.660832777378644
17.025350163966724
17.9404944280852
19.274439466491188
18.21822352119628
17.542726535306628
19.144463618601943
19.80700665891901
18.954272896400838
16.85729105128042
15.14111744332891
16.403325141943725
17.19150858868445
15.272827163366365
16.808076185227563
17.71966654744962
19.009002399057106
17.794010406142583
16.50697248631926
15.18511944010848
15.421208891449945
18.03761690269932
17.655081344856143
14.461289666566602
12.331341864524543
13.094095778396067
15.51941317953904
16.2049565411851
16.796352141426492
16.309843056767846
17.045074814115072
15.382496748046488
13.501774752170475
18.368955810309853
21.54860683072241
23.119735137172402
22.156166357923293
20.341524542173914
19.566770841804427
18.220003234647606
12.983459341993697
11.033211977643877
13.212183503707255
17.34753363386449
19.98760439553737
19.803997773613478
20.088691343148522
20.6068918669698
19.24823692876431
17.210363044772556
16.3040425188995
17.417676401199355
15.956225527816734
14.97000323554491
15.75222985833454
17.911241766248633
17.094083023509132
15.183772136400993
16.10033163289739
17.799503707010125
20.37807379095545
20.88513498606577
20.785800416245102
19.56882477995482
20.182247591624428
20.459633567454176
19.74033708163538
19.800668105558387
19.490595284035276
19.462742441374584
19.486580023216902
19.00154545972998
17.02130540817725
15.911741041830648
14.305927660585729
13.82642726172015
15.871370775815032
16.804566029976744
16.08831187866035
16.232971616647873
16.2863477707404
19.118201676232374
20.748875689203395
18.99062303756591
16.655576450310473
17.989523963089066
18.199488122228942
20.453669054948648
20.0384343137584
17.528588294009307
17.043549756517294
17.769766307170507
18.194307155779804
16.98544531335305
17.606061921233206
17.095809438834696
15.824533332114678
16.453594478526572
17.287663802996818
17.096046707930167
17.46148731535356
18.14618070466805
17.92483307331621
17.911645692944123
17.156771743359396
15.68895982137749
14.874930092085993
15.251680735752096
14.54368774112204
14.449616292610065
14.082665170364082
15.133445336837118
15.943701580428861
16.37939351038153
16.780472807269796
15.975829417906196
16.9049874423948
18.80936332452322
19.13839320979619
18.57584265958089
18.96877015138408
19.10789412798971
18.64331782089335
18.758304741544233
18.08141222247923
17.30230612004819
17.536342137057034
19.076241118061464
17.533477440334035
18.5331346778006
19.666032763839663
17.85978195129245
16.89651176535994
16.700348845645767
16.223001248602188
16.265335551186098
16.727590275901523
17.52192907370853
18.385874901838864
19.600667831981777
18.68414672026115
18.295090700317523
19.209581409534714
18.723803904255313
19.25564232307459
19.013254476901164
18.007019055199383
19.1241620202881
19.416826414533027
17.87585314363577
16.738846112580916
16.666968567211804
17.937653577467472
16.776595677653134
16.106489720098725
15.901325902084562
17.729002267108235
19.290397337790324
17.50268464297186
17.56290017262313
18.991304315453206
18.748460201841677
15.990628054793623
14.70118832397717
16.344031000052404
16.615527022660995
15.496031217304006
14.646563695376837
17.420936425051043
17.437304013548214
17.16165107214071
15.87988920663205
14.727011477538369
15.368791463611057
16.958832032960768
16.445135342893664
18.173890232629955
19.91344522373433
19.090003319034437
17.223875858201467
15.127062667497691
15.176285584434982
13.692245244978329
14.62161306032812
16.099736549727705
18.888278517604217
18.254645941570036
15.953767683090899
16.988734322804326
16.77921497836974
17.580504183473423
19.988748130196715
19.92331654614767
19.135801200769766
19.005343951428202
18.38062702425729
17.365254403917163
17.75040269233724
17.586257911408122
18.71843117055429
19.057556123617573
17.93333645385331
18.1316511453888
17.21806187968618
15.81394490149588
15.789990345381405
17.33123991505814
18.957091118917027
19.092075786506463
18.51488147773852
17.378009179582886
17.034625913689563
18.01773193318763
17.242248110737187
19.2927158636365
19.341753960769775
18.537211397867
17.74900582104826
17.45660890207854
16.183166426119147
16.32286279503364
16.29103450422044
16.19597362196272
15.059303404895727
13.070154230559213
13.278814468765015
15.52377032844701
16.17776526499327
16.873280865110484
15.37300268410052
15.280784136907032
14.761705641084815
15.145584128802218
20.491121990202352
21.82393550301708
22.29905439273352
21.595051394980185
20.96294469824715
21.223189483699205
19.53590864475752
14.258966733629935
11.248186100904553
12.931355634351283
17.559991946740414
20.10528907591138
19.614530959593242
19.44259025460976
18.813760905579198
16.82602246249856
15.346107249686588
15.633167681224972
16.630288236767207
15.82237283824369
15.188171440832374
14.681034724973577
16.47944223531844
16.765120618749584
16.18511059431696
18.23680294160226
20.442966526875026
21.192180181421218
20.13868742117949
18.883594439164963
17.856657280596078
17.92373084229576
18.644561072824327
18.071094234080473
18.35354732039262
18.49037408281415
18.204957879238147
18.38937613004287
17.078907995353383
15.052798951924059
13.710061002738987
13.752831829984753
14.658269694768943
15.87282133523513
17.030363895180667
17.163447353238556
17.724190118357097
15.825734972090952
17.10565876003089
18.909024449841947
18.99752936518797
18.451448258610974
19.23098542640834
19.102659691478202
19.675736006306884
19.653448160687045
18.26542549665918
17.21481766362135
16.86125055259905
17.436951850291603
16.925084877239247
17.233724472195597
17.78826724326198
17.443562205807112
17.678405477533165
18.276163411457137
19.13657187368081
18.949697875477103
19.906508367838146
20.28642880404043
20.762075413074562
20.031103355358702
17.343630609073685
15.138107706143686
14.008739672023873
14.017849066071557
15.26576425317619
14.933071684879325
14.803953970646724
16.039261211266034
17.49158303283419
18.39161272083867
16.696638652558597
17.729781005353747
21.122494726198
21.777139826877892
19.67174922487045
18.704664275706815
19.472165440709926
20.80459600762358
21.187191588186778
20.574041745295695
18.942223099612864
18.468688442993212
19.65749155911296
18.42848004189353
18.406650051882295
19.304963356741908
19.38243650247678
19.242973993359634
17.906304439377294
16.119407912675292
16.386846654089684
15.890830630970875
17.098136667392065
18.86942506831472
18.898588898284277
18.990442295957315
20.035500082302352
19.776753324473404
18.616574544096636
18.51968357453671
18.70855781332047
17.657267641532936
17.825021002745455
18.392532899721715
18.430857572245632
17.72976787054029
17.278531335486928
17.248068833150814
16.715361489993228
17.13331787014125
15.79441456452115
16.74368167769564
19.287416358613797
17.410493483397474
16.695168131634738
17.430124705854208
17.10635762571899
16.93992343176335
16.251721238887935
16.947305278702732
16.823073468179253
15.70022356395032
14.02381845215815
16.6163958695644
17.237394666485567
16.54508418207311
15.230602035579329
14.007413849796874
14.411687849854555
17.2365710085635
17.583747529845944
17.893089534028928
17.60438574758567
17.379302010717833
17.062832142420206
15.724630955472032
15.76636674061468
15.013431282000656
16.37971338038932
17.263815974275328
17.982952971237413
15.999228697728382
14.25977060543009
15.193617812340168
16.197346063580003
16.56744789342655
18.649060187128885
18.00715690309065
17.399844897184835
17.3219586653159
17.91252741063963
16.21786030747917
15.407124882571095
16.31683826999754
18.46390550723863
19.916940652254944
18.271300961181623
18.297892470727266
16.931261928612077
15.898841713318376
17.48573477149036
17.355325583701422
17.770362673726638
19.540867645650543
20.756081656108215
20.352395031613103
18.270926058361468
17.428305139876333
17.65269377569122
20.005302173892805
20.48424108867458
18.739884799841033
18.23585924686961
19.900134670170914
19.84075481337112
19.35358978705672
16.497720022008277
16.58551586946498
16.77851034562796
13.723036798186744
13.570729444813768
16.44545635771663
17.64630630091595
18.25717894513711
16.036344720617933
16.075994329659316
17.27739382500141
18.672197840556585
21.799619276733647
21.157566340957228
21.415039119039115
20.830465920540004
20.645484446830284
21.682870727518313
19.90603171033419
15.428620165261426
12.091455676672542
13.311300802185311
17.343569878338695
20.785450686420397
20.472267755672735
18.601402219750266
18.361268661347047
16.581768694022983
15.882966063878706
17.19406875239178
18.162407338973118
17.31286424972875
15.10430724874842
13.724784872973167
15.486280278876965
15.540651119729832
15.816905402650674
18.077395108045895
20.2974191221022
20.053991104407128
17.60320290527549
16.283214703714336
16.165518834890612
16.02972426422919
15.980311641355648
16.513472290709934
17.752197093024407
18.62563098213676
18.095836566432883
18.8475571089843
18.99092440633048
18.40726519951118
16.975541496766624
16.92087283998404
16.795424899346052
16.269871331780287
16.232829089134903
17.41011353627158
18.89996577427619
17.112534518566733
16.474947664843597
17.138625012790403
18.815858683480233
19.775211328912984
20.223698977324375
19.883674875007458
18.791391617535176
17.647791876419195
17.91588591930864
16.619601623405465
15.962364166409676
15.971484749831628
16.655975793167215
16.73653965429294
17.698341934633014
18.66906574390592
17.428064567030596
17.08898290644719
18.42015210767676
17.074075726695344
17.03967997368388
17.777077016403176
20.37023036241017
21.617185505842876
20.1292084479148
16.922166636980158
14.501554477488629
14.691675103915456
16.935930849287978
17.077137419076976
16.98440183374255
18.502247597141984
19.46578853034276
19.665600475526837
17.6563213435056
17.08981285890433
20.722392829571383
22.47827233680537
21.358742527395798
20.48590623096876
21.107388787930415
22.032842705156224
22.036672568474483
20.57292330970285
19.44363061243497
19.81603727291824
19.953652271640763
18.864416103108212
19.419209266224588
19.36134572389441
18.871395736440384
19.334283202755117
18.888408951729772
17.404664328865643
16.903847248816266
15.342315669672507
15.68059427595118
17.75511473354878
18.09375321971116
18.8714254588148
20.55550411527549
20.412906778577618
19.424758910008048
17.670036598669462
18.387849944045602
17.656996924586277
18.46330968234456
19.27757450269606
18.631759051202557
18.68649400250497
17.62132194604625
17.435160568170254
18.025184332038997
18.472940841416474
17.202330689486374
17.70996384668954
20.284590815436722
19.753678218827254
18.663418337033118
17.61046807791827
16.62303800445986
17.370846620056415
17.154244349535425
18.094947570112556
19.019908559696507
17.55657705415492
14.689601416789362
16.557429401834387
18.480573049317695
18.85313104055514
19.236701033233814
18.43633705993009
17.14924712222277
17.43385479067947
16.30135862157463
16.679479076741814
16.919222115148507
16.203724901981488
17.02310563295453
17.412092615641296
17.420626943166763
16.132371708317763
16.85671004939084
17.664336227359613
16.9895754375315
14.931508497407473
13.86575831754823
14.59914692257936
14.975888197391287
16.165267273378298
17.865432543913812
16.303663386312238
15.93629358847627
16.536510793569057
18.05000526799019
16.702773717838557
14.990971381076925
15.397261984458696
17.254110103811026
19.87514535247642
18.975598646352037
19.589295537464185
17.89334977752095
16.342126672156745
17.0262628925082
15.283723391699864
15.961400912488108
18.394742158984947
21.038478485495528
21.403049912829115
19.461625286662198
16.882859635211634
16.58057770039138
17.283566700081714
18.491414936463894
17.489944774437237
18.64992098072415
21.356599728994226
22.37685331018935
21.54220398153789
17.47014750402162
17.375841885582798
18.44826842932175
15.550630590014274
14.903298152060213
16.044410761852973
17.022829748129126
18.16662539621601
16.378813368633654
17.60321591356333
20.475500059705464
21.593356007723155