# vtk DataFile Version 2.0
Really cool data
ASCII
DATASET STRUCTURED_POINTS
DIMENSIONS 200 200 1
ORIGIN 0 0 0
SPACING 1 1 1
POINT_DATA 40000
SCALARS temperature double 1
LOOKUP_TABLE default
19.21042959720118 17.47349711928669 13.326879145639117 14.125019444437088 16.639419050692656 14.580273429199881 16.853404168089458 13.436715857266943 12.91119608657065 19.10135680980758 16.427731280934914 19.284068438511298 14.892466806272985 17.500222905718783 22.458549292912018 20.578436800995473 17.304810335059816 12.466326953174667 12.846087410335892 15.574283917375558 18.873939177802548 17.72017747907802 13.227794350121687 13.602964288627817 12.513550826691974 14.855288502092552 17.148759254771264 16.168648361393405 12.950762527441393 12.656258332596485 16.51599814408016 20.607890233133908 21.016368722641573 17.30413195020549 11.850775340317398 11.777837452163162 12.476383379149839 12.593080185407949 14.573273353420024 11.858478290251204 16.58668576820485 16.586726146568356 18.70254579912595 18.629180061641026 21.500622044395868 23.156190925392433 21.50160828356407 18.469818095312725 15.44336339507194 16.8393253833981 14.777216799226785 14.73029054048358 12.047638470541333 11.847998065556547 15.584315031282195 16.769405343182626 14.157212152757173 13.682036607088127 15.161660996478778 13.809416161330635 16.566436527453416 16.40981283384871 18.662000497068533 15.541849288972465 15.598377128886298 17.646747768112085 13.87057112414826 20.87048928192821 17.017335140447024 18.593449565662098 13.562377937477216 14.995235810905514 13.318691483291074 14.59446542936157 21.124238441098168 19.816572080564686 19.448352475383047 17.312687850433786 16.185651546954713 16.387036114450062 13.920841518434655 20.82248478196507 20.94071334197522 19.207966847681543 19.23031245536427 22.353267304093603 21.860008540096683 21.554724172864546 19.77851329550607 24.022082388001426 21.200089970443127 21.590252343333216 20.908121268894178 18.62982092333497 18.243659283072418 13.83183216176209 12.45820729786071 17.466478779967975 14.705296164862299 18.910893950210028 19.405957662564933 15.657064457040233 20.755285472836107 21.740266681185258 19.69149143184564 18.508362536864713 15.544729668921073 19.739215218787336 22.91391349587319 19.440331587419664 16.895541776070917 12.056001334060939 12.561416971997767 16.34757360363283 13.18472289723872 14.68723569308246 17.006377710386264 16.640517715864263 17.014394843559817 16.536108716416106 20.23255965705603 21.152720964548134 19.51369598969388 20.042687200814758 19.53847850953944 14.793491233153363 17.244907691023965 16.194356656199034 15.765679365857247 18.657014664903485 12.661248706043363 14.099822703457262 17.173823329215175 21.275392724074653 21.532622650571795 20.46906293984185 17.11929790413595 19.51676927090655 14.211602749054997 13.099209295519705 18.041967092872454 15.92485166772003 17.428378903989707 17.45894557817488 16.69848508453053 14.630663703542465 17.366223199406676 12.959462091167987 14.483822300529326 18.748267063886335 21.450665451916333 23.839628759559517 22.32593870862289 20.678159959592087 19.498911320721923 17.3951834937573 19.071133449968478 16.82117447067415 14.883440273769414 14.472019473002621 13.074685656019483 18.838371305794908 18.78051168535589 19.17888177907695 16.514211043624883 18.259134611882555 18.77213756499181 18.807733861731883 21.811100182366147 17.191828762358657 15.925164818633203 13.93372384094574 12.528489268551418 16.63340523095556 16.561926609831662 18.621444501477722 21.484631243350236 15.606697063848982 13.694765685364258 17.477405859925618 21.02432322892643 18.146237508862118 16.762302480213155 18.256619425822727 13.13260494514303 12.321084120810383 11.917323209963902 13.037202267733635 12.577555672677828 12.711289106785372 16.259752975876843 20.39590557100471 16.51951701478115 20.149948299218753 22.64249551361868 17.859783907366992 22.72139912953344 21.099984538922826 18.26477100003025 19.761012230795806 21.569714563217495 15.560973597972527 17.8270821225832 13.736400038613814 14.15165213408684 15.538840199865673 11.243559136193547 10.461643430329515 13.243094301636688 18.311601262575486 15.239116874028749 13.045707065958062 11.357876791317022 14.69094866692445 22.87369306403738 21.174103404592852 16.94699119796979 13.946283162499595 16.649431329808763 22.115199254332243 21.274727368174084 15.60342580162937 15.902583449880659 18.631479509038236 14.771492832409008 18.251908118830016 22.995585192690076 22.252197724353472 14.335034617295644 11.642989227838221 14.744588842325868 18.70253966506838 20.891751112378106 17.499306444954595 11.559099122127932 12.095335759372132 12.792999223604456 16.090541441404124 14.38724271570276 13.735742636651043 17.631877546913092 18.667311692189003 22.207140796569824 20.89033492801921 17.834401183034263 19.333893659444584 18.363309313694113 16.436874302107874 16.438239798388032 13.679076979475107 12.7477577977917 11.912212865854547 11.730074962116536 13.651879288216229 17.22734944601618 14.691851355025133 15.514890556668117 17.72897463337176 20.42902552603249 15.330483024427698 13.571753809655467 17.52865199782591 17.83958168122548 15.635720640113146 13.030321058439073 14.121256740285144 16.128399668249198 18.395699924266392 13.948846880453345 13.513931707002639 13.514152396143844 19.202008024230484 14.824044437423042 14.257761797026182 21.69440772960001 20.9297384844121 18.21614446081357 16.722916682279205 20.071182112570522 15.31721412949966 12.271997136254491 19.41185220379942 21.664883058458223 21.858000126013 22.202365947754842 22.60900484893468 21.27443455120813 20.350812039985268 19.5432555328437 22.196726286867534 19.463382419380913 21.6037835811525 20.949939243574548 18.234347015739626 18.879646738281586 13.443954301760323 14.457806614930268 16.23577091221091 12.23699797613337 12.66546814821963 13.537506988807953 14.683586713479796 17.7289357037362 18.88717928631382 20.095736634960435 19.395448295231862 19.087429879944587 20.309536090234097 22.416498511928264 17.263282094821406 12.086542227785301 9.555106546809961 12.079039658921822 20.154986366587 18.953022871105272 14.966428526768453 17.592840983570152 17.070869983473266 14.85431233940789 14.701306167397016 15.79078125455212 15.340401016539975 13.883052443414389 18.147247950389154 21.273223811212848 14.643681383572929 16.486576241344274 17.50880350882364 17.927635293029237 17.47905052444001 13.896831892744698 16.40311543729351 17.489011992763764 20.5703834056015 21.990778208491946 15.76831590660809 13.5473109419678 16.063033550348063 12.26373720466968 15.727679852900723 16.036575958683468 15.550603161196914 15.76055499816165 13.183038846576466 14.55946321916781 12.9124973228844 18.143261958041432 17.05430565604635 13.802697383448837 16.06320907957803 18.902445820138603 20.01432728852495 20.098839165667755 20.83326599969594 13.505826221391379 12.803812879524713 15.354315294689783 12.972898621143266 11.690932337924385 13.36987332087643 11.323297716201727 17.114750151906104 18.75605513708811 17.73717829863437 16.043470793790018 15.717078603361625 14.004383587282245 16.104772791284798 22.282532335420317 19.89441134793232 19.01593709026155 17.033930774454145 11.014905060401984 13.8945835623956 16.350858969425325 15.178189793705865 20.612525678764545 19.255825521083302 18.015400240714328 15.222145793423941 20.45193608151971 19.10541181330621 13.066606137887652 15.651510485824502 16.663399606671366 13.96434878622376 11.790451718512546 12.143334563510527 17.97050248155383 16.46202656706874 17.17872556581771 16.34347237936961 17.281390861061805 17.653526539992487 20.579260632291476 16.630748004244374 20.504986547190803 19.473053889825337 18.185684905400564 21.090980163989144 21.19096632466721 15.999757163807255 17.138700261238633 13.30505498689508 17.180000623869986 19.421015021067053 11.407372643367053 10.495351361647552 12.173474431278763 15.674063618879286 18.243344079559222 14.816714194052814 14.820056886017857 18.897600972533915 23.487511695059624 17.986324607923503 16.5423289837306 19.033858786756984 16.407512246723403 22.14686164994741 19.960990337591927 14.841369676755324 15.497925069767803 21.29125304800664 21.18788105983768 22.002667567136573 22.76272419833743 21.862005458648195 14.744718448381297 15.198133690566921 20.393941020565574 21.715109392317995 17.81271803420186 16.33118779556625 14.370501713302865 18.50733323027952 16.64459989012417 18.132451324738938 19.221516649153198 19.83999579075678 17.469358749767114 20.98022886049174 21.19490609313043 21.27743823256987 19.76499928501264 20.161332807553247 18.794255555162838 16.093403629546003 12.734429310199051 11.950183248755433 12.151146516584163 12.040574469887192 12.463238025605099 17.0968959139948 15.957135596097338 16.847193434770357 19.74162689060528 22.519107264584257 23.847888093120456 18.281041080780767 14.471724976307804 14.349716977917264 15.552829633204665 16.50328923713498 17.574737372741858 19.992295275551136 19.089859031916024 16.951824459079482 16.90655755265952 20.34274277328728 19.624198795460114 20.75984674875913 14.057271258686766 12.899075176324297 19.646027808605577 18.076516100171098 16.94312092755788 19.437068123287435 20.421987675771103 17.391699405636555 14.74981291162151 16.755865922864384 18.71681109878094 22.26663778871329 23.970297363304464 22.693195071263002 17.507459937583864 14.268248284129019 13.324719791807702 15.538931145788261 19.014816386076543 24.157220015176208 22.77824919806625 15.730066639176606 15.160169765494894 12.188755466599154 17.609161345529063 18.969828845814853 17.44600182285999 16.08488265780959 15.40318212033921 17.023677697137675 22.26657077174811 21.78537760652981 15.54769356873548 18.772279319198738 20.334988792879876 16.173836233337756 18.722788362057845 18.013568280425126 15.964845773918938 13.226462032647007 14.722390233325662 17.287192968964057 18.21030431664415 16.290426619938945 20.381322525626402 18.918391726939475 15.638615294923271 14.551671365185515 15.347619619029928 20.09143860659749 16.929863801672532 19.933687041193433 23.451486757795667 19.80661422102136 17.032682936892073 14.7925332866578 17.392861962647878 18.1001414332303 16.985188738422337 19.338162159303415 19.413316747290587 24.02495217059997 24.854807452296058 21.41690988970711 18.65424819378461 16.724126704233342 13.66628182547525 13.778874226432741 16.57484924223185 13.242855109445083 12.96978386076071 12.682159116112803 17.820265633222867 14.203344035367216 15.519261984415499 20.69676437753017 14.52877678196034 13.072732385212877 20.29534866863004 21.01767725392315 14.89587245506261 18.377171159947213 14.999398832107671 19.463390467834962 23.57179225703535 21.268679665938073 16.151339088408754 14.976915832357747 14.687530124739398 18.04191133133482 14.135702850056234 12.519855775619856 14.655139725390216 19.202136256219003 17.88096633716215 16.395628860711966 19.48936907736059 17.414306986620623 20.857330111426748 19.585720347738434 11.748902928951459 12.362774298637472 15.607851838653207 15.609253906876434 15.132014617637399 14.369834558143397 18.130922954060527 13.475572220390172 13.479996129439716 16.687346312309348 11.141198518659403 12.710575655250992 16.19381998869451 18.609794610832427 18.48652695338793 15.42293366951207 20.123998791872555 20.728392072334916 16.8108900576784 16.43105504197831 16.229916305978517 21.032713539109302 21.622229147241306 19.470482713387966 16.702699023114377 17.86367277737426 19.877756344850365 22.59031599142253 18.38184552567706 20.718031697165348 19.414849908550156 13.261151438454906 17.93646686515505 20.63726324343528 15.969196312108071 16.945247631377885 13.752751643280488 13.570809950702225 13.77860260992412 12.722431844261823 14.29823040142221 16.125337673719358 22.731537254757008 20.820612605231773 20.935899243020838 17.96756999700688 15.410918710646158 20.405486788986234 16.081173190737783 18.559979499597855 17.608298916328124 17.968267307505585 16.9442835069697 18.55917052433158 20.860605011152504 17.34176523648508 17.01226576716957 19.186422800398915 19.59087269718164 19.99109323087669 20.302818487605684 20.109059217071742 17.671048453697562 19.106491808014596 15.553608694238525 16.71077569378975 19.966087236871882 17.61027626534561 20.132549701137595 18.695511092943487 17.74178540224764 16.92265636614096 21.81109311596003 19.310643657174296 17.857725365147466 14.003359445313283 12.733407585985606 16.774660029593438 16.59781144470536 13.759113721466973 15.219784756004946 21.260192706284162 21.85523714530144 17.451981612810513 21.164091039119082 21.010772512912677 23.355023291765935 24.328213408755573 21.009763697735753 18.073091513282815 16.33159601891683 16.083674236458847 14.44756045334868 16.21870399779836 19.746341695146512 16.756348136253393 16.089674520324998 18.914031953855893 20.22198165271101 22.581712733615415 19.25629610928011 14.63991413658734 12.479990376843624 11.26270101611869 12.971517625746586 16.219266725024895 19.123280610233135 16.70716450080718 15.543706853911935 21.615078529005967 20.78337318597869 23.24194109088647 23.826373330102573 20.298637918729973 16.54341161108844 18.329492657576836 15.476394945827352 16.21191973226334 20.50575651435518 21.332938728534426 19.13465582640449 17.14015394745774 14.86199753996133 12.00204188563263 13.879720416122796 19.9240744320144 21.174757497664974 18.796837157580956 18.10303935656887 16.39839639513558 20.210969891648865 19.7454101052506 14.20639987424961 13.125223759576357 16.600942740479834 15.416277575295055 13.973044058937992 19.37994188893959 21.17977510299811 19.656805089485587 16.061299454631186 20.042135765814432 20.970179177000134 18.436230203201838 18.47412110139175 20.859385059969767 20.187772460007068 19.329075403819953 22.418401840415157 22.898137980461936 23.146330940082308 24.80823428785956 25.838210904950678 22.766605045157807 16.853761931500486 17.838070064859803 17.131614872842523 18.61902792732794 16.67972369109373 17.740593804282604 18.495478028831204 21.932268335355516 20.28202131486945 16.96567169780177 15.811877840152578 15.1276991735723 17.590519637261732 15.012636428957386 18.349995314610457 17.82851818826126 15.00633594197944 16.325586425940283 19.781805886421143 14.7099191570679 15.200287871726642 20.89122871837077 14.676788945172671 12.90075890480484 16.016875951082 18.727994685865674 13.959773227129576 15.172130944212222 17.52736287990993 20.885275116546556 24.161622854050037 21.85248293651375 20.867070988827905 17.793813505370245 19.133341694542338 14.854872447229992 12.4918440134058 12.633767619782503 13.26413765307951 15.713798018822487 18.553308097861454 15.821928677923756 14.734054017392339 17.47045253740571 20.620943073023493 18.215635366194423 14.028777372282093 16.469225404026137 18.571456021632724 14.729551769685918 14.771512145203886 14.528938809661925 20.574609217324344 18.966218832617844 17.027617259886057 19.54552857762429 14.274418360812827 14.49127808131345 15.279157576526687 19.252205735287767 17.202427925567243 17.397086270894455 20.48605566662616 17.10541992365406 14.864384391679124 18.21295560519463 21.94086230582051 23.567558499380493 21.85912074340618 14.734491735109474 16.08870315954375 19.306122496633243 14.980451058998058 15.504330572171208 12.763095768089705 16.50492597627731 16.33652042016464 13.074481029739921 17.701666324257673 21.438054111149874 19.045470107812225 18.269872939980967 13.28200983645116 14.690765761557621 15.727848608011664 18.943577867358805 17.874713204887534 13.915848065177322 19.71343157773538 21.112339869758078 22.231349989025002 20.307722461406875 14.518830258217752 15.548466742035204 12.4004155346575 15.213869648457957 22.11324117340637 22.654308623885967 21.561870875012815 21.63912077169693 22.51304911350383 17.293828473429812 13.62617213902362 14.48244588908345 14.822064727340795 14.371660006687055 14.707778632049761 16.57921208999097 17.240742654157568 17.14815292434256 18.49355114121772 15.700995617162029 15.485029768588257 13.118319094258464 17.508720734234515 17.77267407987191 16.24250373983529 16.95786092653614 21.120148729407212 19.76731112522813 19.45802811441642 14.900266319238273 17.897765451253402 19.340600625258144 17.60053373211705 14.234649806059185 18.581843551699148 18.697182249062394 20.889281165246185 17.27373831081399 23.106423614236604 22.389809606953243 20.653360466261663 22.863930245446554 19.70512379873692 14.765468081664302 19.59008182718341 21.07864671945541 19.690013351728872 14.990617063584928 17.580626881236185 13.964526892642517 12.257293895118831 18.78776634242214 22.571874717470134 22.62266211719722 18.860270158307024 18.649283927540775 12.421648028958389 11.442851051349791 15.56714293186798 18.919174068276853 15.920153320221939 16.106080687558947 20.59872143736769 23.837343167899938 23.007577466062987 19.677112515695175 24.013476611499083 22.50192184882354 16.00727686412465 18.637548765835202 14.55083120984494 20.03206781920144 20.222056481340914 13.772279470932943 11.803861527708225 14.795876363831729 15.917506016167085 17.867234271646613 17.801400128739825 20.92508489862176 22.517821446131894 18.099853238858106 18.879856893263543 19.59207995534541 18.042284775876453 17.157338156923572 15.272985781713231 12.782061826025277 12.930466378415609 14.53919997159851 12.216191344112497 13.600543798054211 18.416624427999167 18.056420824285624 15.780685370275913 20.73167351936106 22.805326467819736 20.389808766544288 20.10502708494166 17.9187345161707 15.621588494375409 17.72348863004194 22.631736757904456 21.22276588010092 24.092700369647684 24.220685511424545 22.167047759501884 18.20523277202083 16.49571836795662 19.41839274046709 20.383101318741378 18.690448215541124 17.556859741899114 18.92887164584753 20.037297909661472 21.82899143561158 22.25731292140837 16.716968928525393 13.790072173294574 17.41100138869333 19.69451344203595 15.780783403836997 15.77745013968079 16.024539235820743 16.855569156149258 21.84539635590194 22.399205212015314 17.66435300609644 14.490166666765207 18.885556559101417 20.35495262262845 17.44876776821612 18.901431768610188 20.41028356525021 18.13444158276322 15.353750253114598 20.441658221888087 21.262457002761753 22.166592745317697 22.99531987024766 23.717986888116183 20.311947575160623 21.20065190065575 17.178741850433994 19.0410610858233 18.73895383713037 13.05951130499204 14.760320173668152 12.680262925661903 13.788438359224465 12.817093831094265 15.213955355062021 18.063062928008993 19.49817064676328 14.838400680194377 15.142635140079864 22.274571235240128 18.35115587094114 13.005809917291694 14.731717271412217 17.087507748787548 20.009139134705574 20.409612403592558 17.308383048449247 15.335331350493089 18.812786882700514 18.429706825620947 18.923361367481778 16.308897225139372 13.202789292472833 13.884203361839104 14.474252200788534 16.81003184482791 21.04788182787806 23.068636591380912 18.93013923061248 17.84157981551585 11.98231813123275 14.424903938321696 15.645287911993007 13.828673857638185 12.230789279552742 10.03236067455349 11.69452204816747 17.98398535328555 16.818941976035877 21.13026661489197 22.14020561311595 21.499310344251622 19.257358829652937 16.706270627782462 19.84595373007694 20.780512823380217 21.93182701999439 19.054035832376726 17.064750955360463 23.2327790024621 24.44138550219969 24.680961636261554 22.760312641770415 17.04273122614353 19.292233893588058 14.890896198942569 17.141274730816136 22.44363228745305 23.480376936009506 18.786659453193067 16.38514863920443 19.248524561605592 21.98423186658382 18.539719538838554 14.91358682166237 20.23107572205834 20.923268815829495 19.102594409596986 14.865142705760617 18.856994586677324 15.909100472532797 14.01669606761206 14.39535066562219 15.96599411372626 13.456828560796717 15.056172093735064 13.12010995866542 12.504496878235337 16.489298716370516 20.0831041469214 16.07914244854326 14.105637360966103 15.394040708462 21.19715697442243 22.325025586742942 19.6978810172286 14.460334040558804 13.471851096960906 13.841275456537405 15.15589982296228 21.436696016869313 24.085740611905113 20.60453111633646 19.52208242328906 17.537036540910574 19.59193764648539 13.221904098216795 12.902838679549443 17.908986467175207 21.014606947152124 21.28613249609203 21.769960072568207 15.911191894441535 11.967508511682825 14.531454099322463 21.07237922009731 19.51676648258431 14.452947302840519 20.08835456216311 16.258388397576116 13.186476443673063 15.794758351501034 15.750102115954526 13.661221135838653 11.858593760933802 14.245213097306163 16.72320275390556 21.037440457851925 20.583320328129815 24.18932363434537 22.957595879576196 18.450108996282285 18.234053362816095 14.593815634627637 16.150654018257363 15.324491452589024 13.680811217700715 13.398891532638626 18.74985209414071 21.375657157581692 20.067009932573974 20.569037950871717 16.723088517022436 18.83193877142789 20.570541342279455 21.207623156648232 18.355698190452507 17.92222096747715 17.29146086933381 15.87082623746048 16.584161717191108 15.27882568499479 21.356019059995624 18.81352310131876 12.636840439014387 15.535123701196497 13.31625554429728 15.624169036057033 22.451895086508706 19.540736737758866 15.328789802916175 18.103338138312857 16.470779984651095 18.011924657795635 19.5209338298375 19.34179637963809 19.75722108237337 24.1639508969698 20.67941065300301 19.401229353267677 12.47609922778434 11.61907171011406 15.990053212323776 21.181748011080302 19.47428800192167 19.036319655179387 19.22809013116869 21.02066698921961 17.372554015771286 20.476442388211684 16.86077360783437 18.66663236438445 20.4402472769479 15.567033691833585 14.238422974409522 16.42962847891776 18.526145152755923 18.194286053031046 21.83382382785791 19.762708172995197 19.149161742440747 17.035787707140567 18.545159054833068 22.308267882731418 22.565164422972288 20.448786407721634 14.894513365274117 13.398598202781187 17.10330778638415 16.81512878161891 15.675780969168727 19.740832271526212 19.865873100414582 22.389111513817756 20.086615914262836 19.60279027703436 22.31515137696183 23.570370345393496 19.524669476705427 14.87363846150437 18.751364102556597 15.006080511940711 15.793369619439742 16.55094846699596 18.95519711521187 20.546428441865405 17.258609228182404 15.246498181710924 15.925376404446155 21.87516105242132 18.165923618924786 13.399253895855944 14.387264250524954 13.170044548867223 13.434892574214418 18.994652959145764 20.622289399333777 20.60628699218038 20.37658586305547 17.05444443330451 15.441714273378524 20.453104494862835 19.89327036093432 19.269054828902146 14.691515634498236 17.844810169687214 17.303282684575283 21.959246162077648 20.39055040068356 17.478263680751716 13.507068117691041 12.807590043835743 11.897932421117128 14.847652908678391 11.558517519894973 11.529253525794235 11.274188139311761 14.160548041360302 15.505405829715405 22.99104449294865 22.798516191312242 21.72068774224835 21.242263711129358 15.855921862656409 18.01404480017444 18.331245786613987 17.2263602001454 14.886921516891306 13.345077793692079 19.907892526225808 22.95974877718139 24.922500024641934 24.73858579841034 20.697681544386615 17.578763640526503 15.73813032970487 18.591661962256712 22.146684008857072 21.515255196081924 17.11878638964533 20.20062060351881 22.199811431905953 24.4214930607293 23.039769650364356 17.776014122454086 16.98040262898794 15.430486619427297 14.844058868465133 13.799013449223414 18.316724408388616 15.749377853144601 14.486540269643687 17.78226858079186 16.293676747452423 18.675742340867373 17.510021511790455 11.18797328040219 10.50439390681471 16.49250589791769 17.618557297976242 15.602262364554328 15.985387971247217 15.694256844703105 20.945996994174106 21.001380778836104 16.03331201162983 16.75921960045456 15.44263009395411 17.67458652433438 15.9999485724159 20.705631811891735 20.418738594123607 15.829597046546594 15.383831986625804 17.263129925875496 19.305637086301818 18.59879480142009 13.281505082626452 17.790171465867836 17.83899507180833 23.573234918377047 22.496086240647163 19.687421883893766 15.647604562666805 14.75424137937222 17.35335543708494 17.48086220230371 14.07305131463224 19.55555065124061 16.774608007961522 15.414779540091534 19.8698424605127 19.66451527076965 19.094551568423036 14.525661239233873 15.365207930888886 18.80371006699987 16.953812872913744 19.773513205558103 20.248247017880615 18.541165158080002 17.132642929839438 14.722284296717648 12.108259622786179 13.92675652529352 16.321398350978853 18.776524836374072 21.465476779787654 22.29425446669777 23.511344891030348 22.699293088306426 23.176565543497478 16.16087422192066 19.973031912887237 20.019200623494697 22.432591816567943 22.111205191262336 20.973796929125875 15.237268125868049 20.34227018165152 21.429915010598137 20.95601704249364 23.1525767070625 18.674371695537985 12.52756484297536 17.43520436993916 15.76398878199807 18.963922738752125 22.906232356970598 18.29440598204734 15.84396525354184 16.920726174417066 19.94057623739542 22.251571778544296 19.171682595093383 17.920507447023855 16.589987357267475 23.39290792468123 19.05326775631305 16.840357907312207 12.71354390219108 14.11179381634718 16.64297914593236 22.57903230780202 21.203937636033384 15.899050809482283 19.057514581736804 20.27835972852875 16.866155763708214 16.67416575936314 21.22251227922827 21.47851671902376 19.13350369720646 16.967201279695367 14.40066172467216 16.017224096033402 15.23733283946777 18.528589772592106 18.211406351209277 19.32230635951946 18.241386615668752 16.04451253483353 16.779007871005813 18.919471465335334 21.610674792814518 21.815960522270508 18.650610562256198 14.865693908940653 19.769607590740875 17.873128728250112 16.552120558296377 15.045221003878533 14.231246147151278 16.727787292045242 18.749752319395387 20.058122107153846 22.16810710233734 21.732912119111138 19.645100814009872 16.433135358115017 17.676374460824825 19.647898680275272 16.657550492439377 18.841014863710793 19.353991864316704 21.08437687964839 19.90504512517365 17.524272511527254 17.620707421659354 18.958307288563105 21.56226498815329 18.95523677997678 17.183242113565576 12.585388077383513 12.989134515243057 19.263903430470393 16.14026923581473 15.445179981578114 17.83025828911197 15.262581711069059 18.415979777839574 22.528925618516933 24.012589421842243 21.43791872395716 18.816762639937522 18.881955534716436 21.932594363300186 22.8444340262858 20.56396360848017 16.918639136271132 13.18261409307613 11.212926410265801 12.59037699630255 16.204663452370582 13.854030210901557 18.17848101882128 15.68134666366751 13.342446821900182 15.994294010916168 22.37976388711149 21.86083200026742 19.468624574711107 21.63321992653276 18.609196686883998 15.153459532712269 18.46686470959173 19.531231847327494 15.795972955401238 13.610380979108163 13.816323145812186 15.03111781874508 21.02988660078808 22.779282878765944 18.2755896081081 14.714856951337499 15.443804003087712 15.718133351572224 14.981757790329636 17.066925770560335 20.482613465501235 21.286738678200376 19.784753137201164 19.762037942025444 22.961594273096196 21.654592191086447 14.79919525013733 13.857769380407596 14.972175542698961 16.801633773542953 15.509881218988847 11.85757776564383 15.285338242507603 20.490894997353816 19.02378013831456 19.69751770745107 15.329851827924903 10.51805457264978 11.769431004401945 15.226240427788897 18.003439379819486 18.475236733137432 19.563663666204395 17.14480287078493 18.382947329947427 20.77283936562797 18.40384506354918 14.713498885961469 18.02412461218331 21.636275492334683 18.858440475672293 20.787042191646563 15.699533002592272 15.26824885367253 11.63226962826952 12.337847719636077 19.42014091634295 18.802900871834755 16.878314777189605 21.272035037437185 18.13425274700195 22.422529598514075 22.35170348861944 21.48625964161985 18.087233422228397 15.129141990774094 18.792648008069968 21.956657516994873 19.87791397882762 20.823105168640215 21.135906186693102 18.687930459420794 19.08194526633632 17.08547636751952 20.38505683253286 19.63967140678804 14.107363327958696 15.31346308676409 15.524120667577364 21.77712319990613 23.009338811573254 19.21689144152705 17.738611637882915 15.639183702309188 15.726625427054513 18.51496419194638 21.787497784888732 21.791569056646317 21.454696568213663 17.340552178418204 16.157279789794142 19.5403017002584 22.4253607852708 16.250636958326712 16.24803194304173 13.579434244163593 15.558868466746304 19.653841252551054 19.397863194122635 15.354674881507501 17.828135023180245 14.712673823361076 19.030263714838807 22.51549104682202 20.093461344409356 15.392302727186582 20.05080257976179 16.54981043638834 18.254152126919898 22.3905569703876 17.97330020900089 21.174825173185855 22.155221670824787 21.68742715921737 20.13167363879203 14.728888743702148 15.62512336540739 17.167902637853285 22.335927382068924 18.457303106917905 14.52149207182689 12.93712221575383 16.0489273598098 20.44449055569206 20.548909648951195 16.747604536004214 16.767926656976428 20.124997309042136 19.815947333987943 14.481074957309133 15.785062394272417 20.337623009219605 15.7711731296321 14.121804056901004 16.56658241236603 14.19355540877718 17.61527964687916 11.745146238904404 13.166701401729794 19.5789103375449 23.240259676705595 20.066367973845242 18.671550005593108 21.023169008845827 19.42789336268612 16.871036216650555 18.291872321591327 19.31686154763773 15.722603809010058 17.695140509635102 14.141561160148063 14.860176015544729 15.248591989819381 17.666353368355484 17.214018037561367 20.938874079706064 20.948756469222044 16.69806169444398 19.27545322614191 18.206601652991036 18.980808945993083 19.831214048627704 23.948495236789658 24.1401574737541 21.611148353639283 18.201441560532356 17.20034971584942 19.3647499199805 19.831441713839016 20.960113302227338 20.471715455494618 22.74415969519679 20.72450820465199 21.15641174127536 15.670937814530793 16.504284890169963 19.870083791166586 15.287961272031232 15.116141432087973 14.818101862689728 18.0323797825177 20.09473028196692 22.058858237653695 20.95129151894453 15.576008635234729 15.466526899509129 16.70135265551993 18.654852694112446 18.48555573457497 17.317820612700245 20.047486383294434 20.545488005768103 15.580285792908336 14.191249661451224 19.93995012279787 1