# vtk DataFile Version 2.0
Really cool data
ASCII
DATASET STRUCTURED_POINTS
DIMENSIONS 200 200 1
ORIGIN 0 0 0
SPACING 1 1 1
POINT_DATA 40000
SCALARS temperature double 1
LOOKUP_TABLE default
19.5541355465973 17.512958733421037 15.275560448410507 15.339134868844337 16.071172548359574 15.594955264635516 15.45307708575929 13.944869309768736 13.762982330236401 16.3567729117249 16.54515165796394 16.81924577318742 15.470468915719408 17.356137701279764 20.368832835051705 19.522857987619947 17.11650231705268 14.666866136208334 14.643080717214499 16.437504352333228 17.677188934915627 16.24006727667195 14.577112719389499 14.784262817826104 14.698336817342128 16.057453652686934 17.866216274460182 17.22346040058616 14.528872396889918 13.725487855767078 16.030761004063233 19.17679634619104 19.6836419214453 17.144112385399534 14.205052567438138 13.776760537056974 13.628571289313578 13.844677534767236 14.036239614734004 13.802098333423407 16.08346627172567 17.863347385585108 19.088383253627256 19.327263457837194 20.45250101190222 20.975890238249168 19.525980158208515 17.711912954619336 16.41453900484703 15.638281380543706 14.5025168256292 13.987154882351108 12.961758915142612 13.413930853165278 15.613508442812448 16.448218221786313 15.566023371949187 15.354561524140394 15.738313037113572 15.259720423712418 15.951296335080624 16.568518976847056 17.29605876796591 15.977557126782436 15.152523343379181 15.525319040833313 15.453502844412046 18.33652225291143 17.883282183871984 17.43584190841409 15.591420910373882 15.644525334345827 15.314995185642163 16.227439020874524 19.134416872121935 19.391351586023006 18.732619450255157 17.347221458733554 16.79916077728766 16.76122354624707 16.577207749235576 19.66346053690574 20.638042141644874 20.017151445378847 19.997035939193676 21.330497787040994 21.54610971028918 21.20801504106254 20.783512229148723 22.016324960612454 20.8963892936982 20.488605432913374 20.11858705431053 19.235670943525193 17.813708772643547 14.885335964331686 14.461239978034941 16.310876154337212 15.789454361763907 17.108118181448035 18.14317211911303 17.96556056638739 20.156961457056635 20.555109876701593 19.329994287519284 18.345433699261026 18.094296263048836 19.98868391041762 20.942780915835286 18.778738003899146 16.12245692278836 13.942990652733663 14.281656416695084 15.873303917307444 15.04031665760316 14.970573846806072 16.072913283666182 16.434166730329064 16.80410417910513 17.195502587226088 18.90350685934105 19.431387019491385 18.859603857872067 19.83917161060592 19.8215124839355 17.585162422495593 17.476263966634157 16.675670163257397 16.925775893846204 17.45785086463665 15.19672081810541 15.657681928124498 17.49443737534125 19.582907959115914 19.9423740037816 18.924911510443284 17.450162675797678 17.59543986976252 15.405541076031513 14.74860548464798 16.570586323185633 16.295350641674194 16.997497443144596 16.77419901180958 16.542989300547667 15.750897866275546 16.29567564322162 15.052940254655798 15.611503820166499 17.936072816856612 20.666079808367 21.94914245278667 20.954216113287448 20.253500498487103 19.018577438629034 18.090150064476774 18.28859528792778 16.919598296004484 15.33613062099457 14.476776766358997 14.46183732803763 16.785695187160886 17.681528790646905 17.663841358907074 17.030704523213203 17.98350804836137 18.404595763769645 19.034737437317997 19.909071106885108 18.132876955211795 16.30947576136776 14.84721779016799 14.317512166957696 16.067241159546054 17.535459514858523 18.766245688894887 19.924489178801455 17.68264304115735 16.16739052504238 17.092093981457616 18.66343002700866 18.00336616312547 16.555506861753496 15.952834046482405 14.359121978811121 13.614903962472537 13.300978268835832 13.778005480858639 14.320115582138678 15.067452848659137 17.148459365942685 18.938557629335012 18.607362504432206 19.9993187089577 21.038386833911 19.80851685749178 21.17065248644965 20.802815625134293 19.581879135281593 19.810363527404153 19.959642617483507 17.23868375515229 16.290108394061285 14.782759195735075 15.205377040067853 15.238885164794276 13.114029154773556 12.155549983395847 13.570673348874067 16.30359565051818 15.852397945742227 14.636679715590454 13.994925328965357 16.69561459912573 20.756718084225252 19.943149304063823 17.36771260231231 15.694087042806368 16.66757019630275 19.48990317643238 19.350276046769352 16.723456587577466 16.071786879158736 17.17175982391786 16.69713067156395 18.464353465259794 20.634329396847846 19.59522572321696 15.402914302946922 13.977707066968224 16.2080263891838 18.86914103823243 19.332572162324208 16.943472050515112 13.754369251120734 13.570025556659234 14.00795706727952 15.250459022358807 15.319294136684533 15.341195898180755 17.189867107971814 18.88724423832624 20.465334910365492 20.21148851127472 19.494166656560065 19.643564929270408 18.62642816514642 16.876063323356778 15.530518979638986 14.20939753870725 13.248342285326517 12.687621992719244 12.688921061670642 14.254062691707514 16.016844200164204 15.993661023722446 16.533095575703697 17.86203442597322 18.667311308737798 16.430156471864326 15.39083938057464 16.44004425651674 16.929459894104998 15.86658098074538 14.973442145544725 15.670318941601169 16.46259633412431 17.4157823600561 15.988111017751772 15.789992626894833 15.766180147726272 17.16508182455174 15.489188360708093 15.731013690841955 19.284719630288397 19.508292809345363 18.34415695861511 17.793684124346566 18.16615846450803 16.273391974869572 15.232580833446079 18.55981715165295 20.610804511303687 21.38806785175441 21.837254883871356 21.918561637774324 20.723365676688083 19.6436881284683 19.213784533911877 20.435918448741006 20.342254061707536 21.214721476410844 20.551085153254235 18.496771488126722 17.196754322014108 14.600694606756337 14.928755533388458 15.972030981004174 14.676498206007997 14.719298721243195 15.278938457804315 16.217376115685184 18.63557772986413 19.53052037807712 19.124319101523263 18.894785087391504 18.892591759693342 19.579513830911758 20.230399905797967 17.676650873152703 14.360431335240865 12.368186545151167 13.815461475677015 17.33065191685583 17.35670116240522 16.253260376400064 17.256276924474914 17.027689554117114 15.938748990933213 15.689027004068864 16.61414570662341 17.088165694221647 16.822288300278785 18.807094031275426 19.859259572323566 17.224064134100082 16.839767955542325 16.907005635320782 17.31069373336631 17.157719887051652 15.570726726698966 16.57339482591068 18.20156017817463 20.543865620546537 20.895195656418608 18.089675732721254 16.070231042792457 15.906907045425417 14.266587414800929 14.917367684264855 15.951958627914996 15.515895869333491 15.331368793295033 14.685673499679082 15.162723236815207 14.779861672830705 16.553392661302635 16.48333944988744 15.233435364009765 16.452675268548994 19.051935389138247 20.232485239496064 19.63093828323694 19.05249321645603 16.262591434703722 15.830806640204518 16.81443365584022 15.535213480444927 14.034137119636076 13.807085459795903 13.846024189105792 16.518767397749137 17.31376870255384 16.836484282715 16.236131778764385 16.541198192865536 16.333489230080417 17.466183462370925 19.90550485766769 19.154462705768076 18.288061572141856 16.289596580731963 13.380635717885264 14.352152007972732 15.987750776572234 16.746977605965427 18.545745744828594 17.86856123148858 17.160149400258582 16.56492777644286 18.16241976402004 17.572324767847846 14.949205916184628 15.266456443151133 15.44988668200284 14.631327359081935 13.68013068371238 14.05649767260454 16.38325283716512 16.715303067410773 16.970767386414995 17.260941101947903 17.62253344680077 18.96084835957309 20.006557153155086 18.65117973676562 19.551844934479416 19.465844400591724 19.195967973757536 20.336365386628632 19.729656451870053 17.589899306079435 16.752039642564057 14.960410370112946 16.468362169766294 17.076398829754133 13.673236183702238 12.471917919674079 13.224093742712627 15.314118233412783 16.0438080591595 14.92004838219135 15.127203838347436 17.86604905722186 21.051587144010774 19.503909308565035 18.01538532844576 17.625616350964293 17.486051593361076 19.896845616645308 18.867654632980877 16.662748630221614 16.887327207589735 19.11076200406463 19.515990580855245 20.560860116098763 21.460953336990283 19.937647858137286 16.379306216969614 16.133322361746046 18.52008585333916 19.792686836819524 18.73600820233051 17.11332978103312 15.615793965786034 16.527064280945854 16.31223832048873 17.212136848159766 17.982426623121487 18.049106967339352 18.380504526411613 19.663373485324616 20.306461244118758 20.20830731382401 19.923440695375223 19.57654009608549 18.253753471621177 15.965287788106068 14.101549956357507 13.49073722189257 13.16898969174693 12.841975965693932 13.729571454650404 16.287037685208592 17.103250797410194 17.31742937032049 19.130126957179726 20.913275314477264 21.5280224105891 18.939916233920123 16.41912225681966 15.858818872292744 16.16998068410859 16.360726804503084 16.643476489485973 17.769678561329762 18.08636793578486 17.312929149422267 16.922865905784914 18.295763101756414 18.824255771433556 19.12531944106384 16.08912011966762 15.086456929479827 17.360391926061133 17.289819790874684 17.085827293012976 18.19896326364461 18.84881439180479 17.065143542015445 15.937964674864373 18.03542131543024 19.915417833644366 21.87947831600751 22.787803225911865 21.557703982109917 18.573872750996838 16.62737606245227 15.84528934802112 17.325129668256416 19.555082427217528 21.656269832732885 20.60238230653502 17.32449785312299 15.594202827288893 14.097316147910284 16.063368139340554 17.77109751139474 17.22072759664919 16.330870055895026 16.157358570589267 17.28333145912439 19.89051464558162 19.819821941035745 17.479750190653657 17.77037660000626 18.399072659081845 17.585709766587104 18.064474147851406 17.661073448283684 16.17734031119484 14.608301483408631 15.201279385507855 17.588247749636338 18.213002447535963 17.506868938598505 18.71007798723031 18.358327545699385 16.74696478561941 16.155496579343758 17.256466678794727 18.863753334183563 18.726704042152754 20.505683926432678 21.81576150762108 19.486996352420167 17.330127098368006 16.54950155766204 17.292776801861848 17.648191313648525 17.094725134303047 18.231834372803394 19.54394949370496 22.0465470817743 22.308641051980295 19.74450012411341 17.49505902472724 16.22353237033582 14.831072742057968 14.843928393816773 15.854999838020458 14.872715290983392 14.268060275714562 14.566189848556103 16.259163060118127 15.238427958629444 16.32147644262028 17.93485334309249 15.552403573741406 15.271890791552302 18.348960834554816 19.23076210643308 17.196502982033714 17.416832013320487 16.686074063889045 18.631748650295343 20.729254319126976 19.457573324862828 16.920169456177785 15.636456219577681 15.51533178733559 16.348800239344317 15.153632663316777 14.358321669105232 15.151502564253889 17.033538404149095 17.13272853658368 16.991623345339786 18.30927046991467 18.42013793668437 19.311938317740548 17.690464489613227 13.87690401900505 14.023071104493164 15.693257665250599 15.753563828917857 15.954859346999434 15.991760527760583 17.11650116570613 15.792002195694657 15.906325132708414 16.2231450901736 13.71624951035438 14.183391180088744 15.91225648381706 17.12869881621475 16.754349115621263 16.340337512751297 18.456508277258703 18.46179744512713 17.141828324695638 17.170546880057408 18.139292563917454 20.164202038099805 20.47433086081234 18.500822118340526 17.79503414797638 18.317684322266047 18.90100873321078 20.11557903303874 17.613474994882676 18.303247396140858 17.535607108561322 15.332225406593851 17.424323943352935 18.852812749613943 16.590467273604624 15.553412428390011 14.18211946290811 14.434391060786794 14.852161813520961 14.736222778441189 15.350436943907837 17.14532344834339 20.68470798227644 20.607715991051368 20.00157788384121 18.44983335123521 16.962471372639694 18.362402001502318 17.076818014308675 17.31325041804774 18.165928644011125 19.03477221100494 18.918220367991132 19.70068662165588 20.389279009196166 18.521184347028584 16.876363067405578 17.447683271003605 18.551965308900325 19.0523805084294 18.838242718771202 18.35881411383188 17.483148427775337 17.688678617928392 16.72561830334551 17.026214051075474 18.046646296491062 17.699512434646728 18.571227543368323 18.619009971091373 18.23175883248945 18.494687732608764 20.103385329256785 19.359242058129258 17.772552272838904 15.332955414687142 14.698198843160043 15.816985605970025 15.563249458247084 14.490233588046019 15.842016210510621 18.7825149274439 19.576205529287602 18.712234187716657 20.55992074865403 21.51130162873837 22.332977336618903 21.84960126154978 19.49978813646462 17.346992679643368 16.84304221096649 16.823619959132003 16.453840321189187 17.056304055040822 18.094518726906156 16.764172549832207 16.414939374237104 18.54801770841048 20.192924827745067 20.77531846628933 18.170888997987976 15.609377808339707 14.190969535334986 13.502821777337775 14.704099063299454 16.861106306431846 17.869425161734682 16.99103152496046 17.27460912558507 20.026368840065587 21.06568554712031 22.232680854517035 22.83640294009197 20.83703825120945 17.882884701849576 17.179425295345588 16.02545295834562 17.252268544486117 19.35352174491849 19.72106872014227 18.363479293075628 16.70220983761754 15.3430514058146 14.332837510316931 15.950423978460156 18.887888235543937 19.69112049908293 18.45661006816016 17.826310666750206 17.815185236165075 19.250273312960694 18.616384644869214 15.765998708611399 15.01245811371322 15.996084148823865 15.751662694182752 15.715092609960406 17.555831045994626 18.63619442372657 17.759521330629585 16.988067446065738 19.11246582582368 19.918775983902652 18.86739583579621 19.06616535819504 19.339654186692858 18.679796156807896 18.80152781183104 20.57679550793394 21.654488477504103 22.270884248379073 23.311016459068313 23.40901094838229 20.781509124546847 17.819713437916526 17.56396797369815 17.88929091409886 18.09458913291122 17.485165381494433 18.23023954582742 19.38940580135101 21.207094729012866 20.69720614510475 18.117169183814916 16.459137363992586 16.213821560190535 16.490180285960314 15.820673605418314 16.81340715342752 16.492025303356844 15.829515051947336 16.92638710168031 18.193014384773534 16.184310523629755 16.2642029039961 18.3513254692896 16.34192336631166 15.279383200937307 17.117468837719414 18.043629506445544 16.080048358606035 16.29593743270659 17.818341854596433 20.274378519833444 22.261556037437888 21.556885541474244 20.11090481611955 18.35459808186542 17.8808746347029 16.21437140489759 14.730460372814337 14.140408399490942 14.253618752080994 15.87625733104005 16.608382077947294 15.915879772619228 15.980340091013682 17.386580468998396 19.06448163330625 17.913132052626583 15.185202480605712 15.809489626045886 17.3786880739788 15.988765568547544 15.066366944875382 15.592370481482844 18.036396529950384 17.94259818508453 17.520658056178025 17.47860158914089 15.194156113849036 15.302596816961318 16.371933801539214 17.89400384555777 17.348454945543267 17.015784980267842 18.16704224974826 17.291282766391486 16.661689536606442 18.41946799814488 20.569225679112925 21.38596488692098 19.993688186895696 16.54736475969158 16.331507643678716 17.257550262433238 16.314158610833662 16.523233602356726 14.0111955132656 15.772259778365642 16.340137272834898 15.480053524133488 18.13644097455967 20.12038970138798 18.96741019102644 17.50615502534647 15.193961720860967 15.55602385338401 16.53180674572684 17.5798295916915 17.11331961957671 16.68706278126289 19.95414938018211 21.384038612504302 21.622425034964664 19.78519340072541 16.711495444381455 16.40965213276851 15.082469506153407 16.836780721355346 20.208251360243583 21.253740245766163 20.48836878201628 20.39392435428254 20.60994496272766 18.433440066435544 16.135842309902614 15.813753186902002 16.514807365630265 16.67395908856295 16.6571338060897 16.901496962167254 17.31461607432194 17.20789708567202 16.83165745994761 16.124666479756776 16.016809796973405 15.358008198289676 16.80149800953251 16.83664045782776 16.41650188490349 17.521087806060827 19.66491504772478 18.983779104738236 17.764208271112683 16.152690280094266 17.37596441110849 18.41870823505635 17.273141751731053 15.508812089063527 16.725215523794716 18.167315410881926 19.21401498388556 19.314980408800736 21.607242445415178 21.600372971676176 21.172270231094974 21.142579971085574 19.306768377867705 16.70443307508117 17.578470721356755 18.83794035686511 18.538771705810994 17.46428880020553 17.665819474513544 15.51179547963923 14.685798386359608 17.79468714214635 20.71821428545429 20.91486585298976 18.594143760544004 17.17930710690418 14.202213249977985 13.178503939256967 15.179029033876875 16.956916467098463 16.474843484812162 16.349851209628046 18.465826998249632 21.059020607378223 21.652467145355118 21.441812970561454 22.748198717944344 21.29731972548765 18.01609106509669 17.481672369863926 16.1307661757899 17.81515797398972 18.207698850727326 15.988951610643864 14.823404454339878 15.894046198427167 16.74854343827238 17.27025364724668 18.078081791092156 19.62537621837334 20.473218106054276 19.2353201590529 19.029509911171754 18.783528455343106 18.392875599378783 17.371733770740153 15.56827262076588 14.405347411088869 14.647711643581035 15.399282860530533 14.631934422220796 15.222994610097354 17.29758781280001 17.241689391672644 17.198278672744287 19.994293874835666 20.82291271994246 19.50620322406413 19.114972527839814 18.278357743651473 17.649321715526114 18.72701360016729 20.903472738100383 21.629469782703758 23.0866552030014 23.040570163643384 21.52647559365219 18.42003314875999 16.818732509089266 18.165835395701716 19.294107859861164 18.806413925681532 18.148603678029037 18.84120008705451 19.880688022071954 20.705276264773463 20.41713918378806 17.63557220489215 16.261862047590355 17.24180272793068 17.541231637071068 16.106828583549774 16.311351088045615 16.705415644594034 17.468814636103144 19.782971873474494 20.164341290456587 17.76627982792226 16.51497957197312 18.443191309292157 18.960806708023494 18.17167154924488 18.577679790254702 18.466211705173325 16.9203258999206 16.72353822040689 18.678346589361237 20.122212713020225 21.516916648860587 21.928819541414732 21.858575620169148 20.29066163998302 19.78684961816483 18.450265839911733 18.232574846096266 17.07199371812579 14.837337117550115 15.21208725355579 14.715227923685315 14.620656373190508 14.80046716836544 16.51414684844977 18.340639073458476 18.04506048579935 15.89687041875773 16.538225173048335 19.268513775376164 17.475249796582332 14.827871144126062 15.107583145246485 16.767578978894147 18.13853600279946 18.819015228947393 18.033895915535417 16.87510118982702 17.650669659341794 17.70784727585993 17.937716767144902 17.19868730947501 16.02418488279127 16.04821433153507 15.834258755610762 17.129136438006082 19.591984640173813 21.295749050910324 20.0270655632417 17.84468430327909 14.484137754366918 14.496293958378185 15.07170464218174 14.380949228311062 13.512630380149606 11.958876766659143 13.348248508609096 15.97508045782342 16.95963387086776 20.025463218236762 21.38312042934906 20.680641877150773 19.10561068917038 17.183035692049547 18.136379592608357 19.115624139862607 19.50177510500514 18.09576792334616 17.520014319417772 20.937737327945015 22.888241511643233 23.387997785010057 21.763488711047962 18.460865880570225 17.543012652124855 15.992825325591612 17.66864456657059 20.959912512134096 21.62171923835875 19.590828986919504 18.904311409241714 20.094383455399075 20.478121195066233 18.5727348248359 16.892379183782168 18.02404541372695 18.23943787888135 17.33578853332159 16.26231713517525 17.27998723465164 16.237757347997206 15.353677193205186 15.478297441994158 15.69354128369761 15.108748739332551 15.310250433195094 14.088443448920971 13.977114723689429 16.427725274178684 18.407666793591023 17.07528930435531 16.03332305942166 16.473481293801775 19.413420504587748 20.335378756293423 18.328995256900964 15.681201177920931 15.188853417501246 15.882805744878114 17.243961838039557 20.05399857106811 21.690101904700118 20.24764554856794 19.10188348642341 18.664720945026087 18.373705060008856 15.713635971453819 15.44281748388412 17.993007917027462 19.65799165003456 20.302329028291172 19.91456456674901 16.7143677364769 14.418985628271765 16.06250355131778 19.225016642671363 19.066258598073166 17.068576934520927 18.04147260694957 16.01835297466977 14.591738273613167 15.98456624915071 16.452609824036788 15.344553639553633 14.37764235687259 15.834836362343575 18.221558860597842 20.049227533726626 20.903085811085155 22.387154693815027 21.293639415967473 18.50399871721675 17.13052536249858 15.368632314861678 16.11720719274582 16.253696213230487 15.435152079658408 15.783209801201448 18.219001613222357 19.869747243877036 19.96932928459296 19.77118808297487 18.4810217312813 19.3489410383105 19.862655787377037 20.22243645471188 19.325196501524893 18.412429983479043 17.21488151890805 16.69179108333797 16.608984294525452 16.91789524668398 18.794564608709592 17.168797133908797 14.702174647986421 15.733551667088406 15.56025343763554 17.15581683702689 20.373715859867215 19.542616708527188 17.617067477031764 17.958787193771997 17.89188414518086 18.413027645417078 18.986597645712536 19.563941928502057 20.286012251478443 22.372939243262017 21.029824916461788 18.7084892250958 14.996661048939478 14.334289081781858 16.97361424683798 19.822421203170663 19.4789281054067 18.657533535781326 19.194781446839837 19.826250002879572 18.897635169608268 19.229863312908194 18.248060608107394 18.284035619970023 18.49012725094319 16.76607435735003 15.42477372184369 16.24636149915453 17.23895053672203 18.27781247915699 20.11195629145703 19.920219858095088 18.57247980992615 17.375145628201164 18.617330520646934 20.458894131678782 20.726723187861438 19.64394076896588 17.116854601039424 15.65486708095402 16.817008531725886 17.378339856941828 17.54608895305989 18.937918336199584 19.70450155957509 20.69917244543471 20.164355896557463 20.226612147873038 20.925110688731912 21.106880627080358 18.93789266910492 16.372585978059977 16.93087273879402 16.142448195539156 16.038986450365194 16.715881085920223 18.20934602890726 19.23408088844516 18.04023051372712 16.461995692177794 17.134240429048184 19.63833461838543 18.324800329099727 15.554503005316501 14.939034337425339 14.510807861251843 15.526312392646123 18.265499938105066 18.874582480081386 18.686000482748156 18.706058980178405 17.480985210370083 17.540402761305852 19.231468975873938 19.192936505562788 18.22320669525209 16.636565194474386 17.67741083977322 19.17140530939829 20.977466852320763 19.83617259500881 17.32566377293513 14.264084208610285 13.239323446639673 13.3287629987361 14.054437405202995 12.641217669360753 12.943597884876555 12.98071365816172 14.7140336136702 16.8393008349042 20.879884251248917 21.83770068831135 21.1355634500101 20.047966968107833 17.57242457357224 17.641917837883277 18.24848260216535 17.943056128811566 16.296865190415865 15.744464670930324 18.879409846585666 21.45131664903158 23.194622481394497 22.73569674229581 19.80394683710179 17.486119306820267 16.37431023703904 17.825251412233225 20.0195244087385 20.340699111303657 19.055151643170742 19.764657834119884 21.117237951889518 22.102193087576044 21.16034824017966 18.53824626904521 17.165405536913443 16.232755801921705 15.709110818542882 15.514822079298492 16.655290864499623 15.524043134962502 15.377164126962898 16.81643832058034 16.910974836631155 17.123350079940156 15.815190312908939 12.774121991923698 12.622609417099273 15.64476450109951 17.251950652230445 16.664728424111946 16.504450056651955 16.906714820087522 19.49502575686457 20.04819120353981 17.747334270142478 16.2800343447697 16.198660336969905 17.298319725380054 17.62589361808224 19.68366806773589 19.382182249043584 17.180621895169647 16.08782624510963 16.808943357715254 18.293861930878993 17.29849722175117 15.889603544911221 17.95035221679557 19.19883095218809 21.482100305527133 21.30221615332462 18.907665918028982 16.164216165385866 15.802354587524936 17.750573876629726 18.118353085025888 16.964392913431272 18.529556043943593 17.51675206988787 16.598275019674933 18.04407917402956 18.253914249390796 17.691403296784195 15.877987221363314 15.792814237838119 17.389686750526526 18.153499635717818 19.87990731047634 20.740873699541304 19.50415343475899 17.56127658783913 15.652450637323007 14.298456353059626 15.409006085740222 17.076237351065654 18.35315795996278 19.595951252014785 20.50621757921321 21.1837869711545 21.329590718138277 20.97766038559111 18.14413949109273 18.761807760812108 19.252336810979518 20.37628058701169 20.506667209437005 19.438863256151606 17.331562584486566 18.41507188917424 18.95662961169586 19.662183735819173 20.851344787686955 18.352954999952818 15.206834837123022 16.552563738674017 16.503148438539817 18.38518872878225 20.705594174794093 18.9258455557246 17.640320726326326 18.289504412937113 19.41888115322693 20.000935439334995 18.64456578977572 17.98685230041583 18.48113835807877 21.149071307485755 19.390378792985057 16.80578989890424 14.184896492277936 14.81598711595696 17.538078578937196 20.3899409048837 19.60035108244852 17.835821728075263 18.857215469047464 19.263285310124665 17.538112725327068 17.82433782486838 19.4345676148875 19.348933957885894 18.155422803801905 16.588809505530232 15.21111846981173 15.814514450559631 15.857409283394752 17.34271547923888 18.925975458756938 19.608727159540095 18.537712814613066 17.306151302541767 18.043283350484455 19.478211176718283 20.41229860768165 20.122942706486377 18.099704343535496 16.357882094676015 17.705067066358243 17.17972382333313 16.47136779459008 16.259245461015038 16.598888129569808 17.933535678301165 19.23331507843904 20.131435197941837 20.747827142945653 20.80059670918761 19.19249495184052 17.463792424549425 18.101296619964874 18.8812509448657 18.399177723746316 18.698273458877644 19.096312014420388 19.632673840134252 18.98395104603051 17.930255301786822 18.295983318231006 19.621198969508193 20.11339997731762 18.43011964348877 16.856720962358803 14.548462666557635 14.971250619841737 17.67635263683467 17.10743674917838 16.78445163202299 17.28956331681773 17.039483705547458 18.589990646864134 21.03666498103582 21.4659859270859 19.738015958881704 18.138615644010198 18.648485632389527 20.185758590529073 20.945075976245334 19.58780528513409 17.419223059115104 14.91300624792199 13.1996816684301 13.587538783048608 15.291013763767772 13.978187096034677 15.976675717926005 14.831124462613847 14.902915294028077 16.843572373980333 20.11622711067533 20.57867707424651 19.996097283661648 19.9768386148335 17.73401380226822 16.188960583378876 17.259663061395806 18.025340968116033 16.692781196181937 15.321501971008354 15.93940716941487 17.505198961515593 20.19839990493196 20.81829621846376 18.70648431185923 15.917845258083666 15.330953574490614 15.644760435850605 16.653561168900247 18.183445044448856 19.153128668549915 19.759147480596884 20.002055610768444 20.340967267780357 20.995749687052168 19.54067966663744 16.46157376506545 15.17460191681575 15.726103420684682 16.348594699240135 15.59203156490165 14.051840526186231 15.464034461046166 17.72934711854289 17.657325564672874 17.379066995544413 15.282369721044581 12.515492435451124 13.01245368264913 15.462438785136033 16.911870890516287 17.7008722821045 18.203934108723924 17.455091178099106 18.67316212681124 19.93465382351184 18.384362866077435 16.476440427910763 17.725477533022985 19.73163126373459 19.29813804757025 19.21107933013866 16.72730668481203 15.014316293311712 13.311635663228587 14.232037597489702 17.70059615236134 18.27558738091828 18.295609321711762 19.825038314587363 19.200026720394614 20.479240701315597 20.624572381650015 19.40553363014614 17.13807971400151 16.188328317860012 18.410443708812387 20.026705316086705 19.59300971001165 20.10660073686714 19.670662685617607 18.101125272553244 17.84140369404399 17.762555499321916 18.93757766374788 18.076689668294772 16.035821245253647 16.420516918701555 17.25940399468656 19.864593890378785 21.07319009639915 19.88599124325294 18.067585498332402 15.961700435042445 15.564850026428502 17.20593539941884 19.394346507966855 20.317640235593935 20.223293698244245 18.901469350149227 18.049486371658315 19.060771140171887 20.00080772049819 17.560812543999123 17.058941896613728 16.408588758511737 17.48791948515545 19.07263097353324 18.979085866692998 17.319154440607 17.41102181142424 16.50198562316839 18.29683631917666 20.416371587601887 18.70531956727684 16.328700238317737 17.894790867148014 17.270538949511035 18.156991288534154 20.00884018232452 18.9417057163742 19.648267608142174 20.28123765599398 20.20671205772322 19.157124350835964 16.41895029971501 15.957378869246137 17.16054089531731 19.748273226767484 18.402362281398258 15.81859127193862 14.440243710303468 16.24627505913652 18.880892132890523 19.93009254024078 18.186478247389527 16.98558231209768 18.419383762119864 18.52872553106826 16.31513991674715 16.72745509346346 18.82472394624958 17.28976904477398 15.59845303756824 15.527240488673955 14.732730766992509 15.387923710353526 14.095499098734047 15.385107714301634 18.74692207504803 20.864917163223495 19.138656108192986 17.766191932597636 18.723864367767252 19.13460578479151 18.737141031406466 18.763372273123334 18.141706817403517 16.731870435623684 17.104178997525334 16.191905417268003 15.93926925788064 15.984071302605216 17.08283949642992 17.774121378184383 19.46705583955759 19.876782030150988 18.4124125068179 19.054778908027554 18.580856612418735 18.114088180687272 19.23993431351101 21.735018384220464 22.0180864207341 20.41205232487967 18.805497436070425 18.138083240432806 18.263039446560292 18.653597051598602 19.898611427014856 20.44650858486677 21.025196749835295 20.14829115080337 19.06998475879185 16.48829524033304 16.30112687892346 17.681643188525438 16.39323338727156 16.28330117041628 16.72718944504003 17.918914550190067 19.385658560580943 20.59874996216572 19.798885943023862 17.49458949780345 16.860049695140656 17.859505177669583 18.806239318716333 18.615756689758477 17.9244419372877 18.309496638521765 17.98605019799401 15.6525552622547 15.413877764712959 17.51504833628107 16.05797095667575 16.678969772