# vtk DataFile Version 2.0
Really cool data
ASCII
DATASET STRUCTURED_POINTS
DIMENSIONS 200 200 1
ORIGIN 0 0 0
SPACING 1 1 1
POINT_DATA 40000
SCALARS temperature double 1
LOOKUP_TABLE default
17.233815284142505 18.805951236110744 10.333127771563047 11.80814033522983 19.188401724268754 12.294464138987726 20.180573775312737 11.655625029361062 11.272524291669718 24.10313019219345 14.390323395365026 24.298424161250452 14.293230626901083 18.714111373451637 24.267316473836534 21.418491709781488 18.034663284252627 9.263038439838821 10.490502477066835 13.825153482439232 19.57271042579772 21.64759661202017 10.728113180786657 11.736587039033946 9.875466036875439 14.337699806707892 15.065121355707399 13.680455701418703 11.8562669538047 12.416788887263833 18.61834041066707 21.945458600312058 21.88831911031742 17.798140965617442 8.787484486846024 8.800345422718951 12.648646179059574 9.927116407894625 17.659957992052025 8.873500050248298 19.38132743133746 13.361897602472263 17.970932679201812 17.04729878605252 22.936639500271358 25.901800215929224 25.130036888445815 20.129827198864124 11.244975379009347 20.25593282786877 14.868233226461886 16.327611177670086 10.754319767779288 10.309355116501424 14.999657616778716 17.456584579811597 12.21031183313572 11.04268392583504 14.737492747821268 11.516871811809919 18.729749760339796 15.006729802223724 21.06154989364996 13.997387156331442 17.2023734599553 23.198330933224486 9.85362989581892 25.339595835034622 13.75728854279743 22.493569236803506 10.22580189990772 15.358398478493244 9.69948897670785 11.682464314825138 24.95687031119085 19.061243773294528 20.362624767542314 18.50985101177021 15.051690380842322 16.60446173912383 9.31618549828588 22.753582692132476 20.385015169865323 17.269498497334265 18.526369549239547 23.91779112443715 20.888213151175986 21.94290216198426 16.697876911935353 26.873374021417664 21.31447056193979 24.310681089951622 22.784705043444333 16.24739359742858 18.273942597779282 13.698871395249734 9.010591712696302 20.183464527728194 12.537674119173 23.53363618673465 21.536941167983414 11.053458483237971 22.01267620406865 23.910650025475316 19.4415598876351 20.749835781668846 10.597738334370055 19.009637907457684 26.021817742944496 20.010658114553856 20.10506332613504 9.326794917703838 10.37484293884801 17.798993399361027 9.384292023829575 15.93888321639899 19.020601973903045 16.65145668549266 17.642310431118528 14.71411891097809 21.516863335212715 23.34092246789474 21.985716364890195 19.881349497755 18.697680604224686 10.600873089884324 17.310877968028468 16.60340190725538 12.385218731154701 21.679099313196335 9.23071349247362 12.343738513038575 16.98156184948661 24.73870144302514 23.459428819307718 23.52392550424797 16.28797696348293 23.552163080855447 12.320400228074707 10.162250695128078 20.85040882571651 15.270377276269079 17.073600691277388 19.21507095863524 16.380189250766087 12.286956928346909 19.7281819206366 9.517455308852197 12.93887404044476 20.997036279170764 21.49156506175828 26.11719257651477 25.118799169555388 19.487844236584053 20.929618895327334 15.970917977283309 20.321032709357453 16.886780449557516 13.921929981148232 15.504278602623968 9.704836226446664 23.124849442406532 18.627845629684277 22.16031396367059 15.498313479708306 18.14944170657734 19.782074672599055 17.009014168546653 25.411786069287533 13.872017517961924 16.639926205727143 13.048803761121619 9.30343640571104 19.68680320333296 13.434146922748019 18.99492229147282 23.659587848649462 10.960684126036476 10.063836827674214 18.70257364426601 24.695850210398614 16.401006872398387 16.70407354789728 23.681885710004067 10.306512015911737 11.010211546497152 10.333863995776893 12.986124449898327 9.841407678499033 9.882611449254581 14.257727012648472 24.367279060831002 11.569531950236101 21.4269524739014 25.56027449663735 13.248217028523031 25.81908710255447 20.97208360749342 16.186464174620063 20.62543982526243 24.919234141722722 11.6022880267384 22.38509458157157 12.649405137698153 11.688870392404802 16.81686441140234 8.390203999080542 9.270043752207487 13.129253552861947 21.14088605765291 13.263222460755385 10.351896737988561 8.437953275469054 10.609002130674417 25.515000692879422 23.133829580365752 16.99401520356865 10.792688201648083 17.62195353502969 25.68400997391722 23.488304694333035 12.889464725554596 16.65157560357881 21.646816511753855 10.806597697251386 17.610289997651847 26.428036750683027 26.14117734212699 13.394265310407695 9.09309639290123 12.009262553866463 17.114134587224925 23.848927936108407 18.80737511984988 9.228874322196233 10.582807834306143 10.720773115906907 18.82774603091599 12.063140259888852 10.886587541619832 19.56385299257461 17.239894157317348 25.248039465403934 21.981373154268184 14.507818592411468 18.663396764817406 17.272284551835522 14.726315977300573 19.816274092696442 12.19323756949628 12.71506534689948 10.708145793983503 11.417581129171754 12.247544701576999 21.057282937041506 11.853513922921216 14.725465712178828 17.136236635455784 23.371145219163562 14.34136550805479 10.38316270482151 20.790851343716596 18.50036945095371 15.957471639344439 9.602569208874435 10.110102496766936 16.44718456637006 20.134559081950723 11.403615460800534 9.452724091878517 10.032469837768714 23.395441947820593 14.95817882857282 12.475385305512619 24.153299040664727 22.443422430280236 17.95610437394559 13.24643961515761 24.331376849386515 13.692184464229767 8.263042204792614 21.724282517484802 23.417576039417845 22.465956519760546 22.412939930117663 22.61669717997506 22.166167672970268 22.075438431854973 20.479461444799522 25.510959341715097 17.261424792497614 21.246786540633558 20.444316574205153 18.16785316204643 22.396357560931797 11.73790518084671 13.91912973385488 16.868446800900795 8.9157862693927 9.620758819327294 11.346409657974924 14.12276376702361 15.741562867037077 16.27307390489902 23.131160714786024 18.855556865818894 19.377217188045318 21.67307181456381 25.081421215456583 16.345934196301602 8.59256019290277 7.401619150039416 9.231404829717329 25.218295802387914 22.057384791259917 12.318611046087092 17.50418287191078 17.291514709603387 13.479167082658092 14.408709328425783 15.771005899003793 12.114659826001883 9.886436363469997 17.602766404406246 24.693195298645495 10.384131767065298 16.58903898848276 19.2597631656412 19.091017890878362 17.64037619531413 11.731874670456746 17.01147533376823 16.571392819582535 18.946660710061728 23.742840110493308 10.783278721155803 9.613735403299911 17.04834522954307 8.849076381639097 19.328512766589395 14.43793603408504 16.421042387016456 17.34718758426233 10.78974132179013 14.092968691613763 9.857383001681411 21.52198222739982 17.603287008780278 11.81283993447651 16.54380790546067 17.83277262889415 18.135978147996823 20.851928388493157 24.389409965420235 9.316141038680804 8.917970387591645 13.505095037021905 8.961074171960338 9.019963413619118 14.455082989296534 7.728203354184014 16.77244135951172 21.07848338706176 18.827127061378793 16.16517817938139 14.189256467122956 10.293483802173 14.274745970428487 25.367946847885836 21.346127883997017 19.128757683553165 18.53475500454762 8.060591517810717 13.793172053230553 18.530421768596707 11.018045783765091 24.273799776668028 22.1519619503654 20.079373164890047 12.051941707122992 24.68672917420022 21.564026474805907 9.856826633993817 15.912363821717635 19.453853140155665 12.846055226229586 9.071918891998507 9.288758563495428 22.035056010004332 14.841140009843551 18.85856573987529 13.623623827526902 19.790711232568345 14.224961260159242 22.23797321667837 12.541242023826078 22.969036311278906 19.688498325783137 16.26002077421823 21.095332593609804 22.613953298785002 12.38096068672303 17.58008948628505 11.084382861778813 18.366383349496864 23.38273842054038 8.129365157151602 8.010302743833575 11.151787397130528 15.135727171900315 22.90960253134243 15.135216629628081 15.020909302510589 21.215670261683044 26.497981072860455 14.527662982121216 13.394108223267873 23.888105018407686 13.331022499850002 24.35344089742772 21.843771444897353 11.479105142461956 13.148628925179487 24.832603061119038 24.46845167834482 24.23625883502634 22.59544295032535 25.318266779053847 11.507718354151782 13.479778282775932 23.697213701159413 24.885084196432313 14.357327251530792 15.040293134346904 12.337667394599997 22.327979421037877 17.207138468905306 18.971848826220327 19.861905968206532 24.27497894729644 13.241566636579467 24.196703437365205 21.043870913633494 23.66582388555704 18.671928257647128 21.495405385716918 19.5121584807618 17.337689451070027 10.930741500943244 9.850141808322745 10.74539352528368 12.009551374641545 10.624608676168753 19.080632953324347 11.896563066388042 17.68196529991107 20.295677012382193 24.835287033763485 26.70289875185021 16.414699857895247 12.2035125371941 11.49040246897856 15.054718613449037 16.797401737305304 19.907207352801628 24.344858555492127 19.462985266063818 15.578968209103005 16.96685125250749 24.657902914688865 20.603356178408497 22.731161386461658 10.275509756625489 9.760147738909845 24.119058823957463 18.8264858773735 16.520625525371393 22.380973014378544 20.96707929616219 18.269390404652814 15.061599849034776 13.970027388135636 16.898528862818413 22.384519175342792 25.084027092575546 24.893869831947093 16.312485138613496 10.339144838353986 10.312950763049464 13.258250537611001 17.838423181080586 27.37501083171179 26.261536192917177 11.86005764691692 15.215269686321289 9.309938807930168 21.842840603506605 19.64323702038059 17.96882567724041 16.457512083632764 14.518796000131623 17.003645843513816 25.8123409275544 25.357412429472888 10.70176763387865 21.439494453764976 23.647187268269384 12.134414652207248 20.604621436834652 17.703622117768358 16.1270458572665 10.856281190033359 15.911935497498503 15.117050420833557 17.98713251483582 14.114402467190798 24.150270696307018 18.93441286003639 13.73208749498638 13.112512204431805 11.145341641396339 24.309846769224166 14.025191529027301 18.818468399434252 25.01722334112147 20.07151436837396 17.81776752336416 10.890552124294752 18.439758704657 18.380126625466886 17.077556338308007 21.60438296796787 18.58004061490972 26.714732170855598 27.863485881715093 24.56414156661266 20.863705442932698 17.91789369224436 12.097445500912348 11.744674724186396 18.635996509410425 9.537106526870614 12.203906600479085 9.837289305127221 21.254820315601833 13.465458064650951 12.878767249005355 25.14722474086306 13.800698085250936 9.277556921694432 24.599306388968007 24.35701713334351 10.094471422510397 21.39695985040941 12.181004040675532 21.606396360680133 27.272092273885068 24.937271466722088 14.622304193310946 14.784274488589025 12.870340351907778 22.34787852654111 12.386033750619942 10.042677466592437 13.733107095078259 23.635192559739355 18.52456100538625 15.07434782776832 22.13001420648484 14.05268631304888 22.625738607929083 22.941599139432387 9.054774116935787 9.871843644362723 15.220023966631944 17.278369266612287 13.222159021859197 11.250349820058352 20.091432872216572 10.222245893964878 9.117962984244128 17.90096270017131 7.8770013429148085 11.02452641526303 16.677158955658506 20.01251323351152 22.51922144391844 12.979226938829699 20.753332189584498 24.9067315833659 15.86289403360052 16.81853904516474 11.80252581246755 23.105813569013872 21.55026372153942 23.242025418706465 13.970516911469257 16.14308909236021 22.059966340597096 26.361895611332297 19.25433360809296 24.420110997799195 22.62373808589545 10.065945639804129 18.99293354748199 22.41708640603991 14.510314349955298 20.196866449763203 13.718987262905456 12.775067525162553 12.35923539088555 9.263295330858261 13.30808006117604 14.474655914114715 26.029207138998782 20.82859474539269 23.414543549678708 16.03539363975921 13.368887468993934 24.82268204679398 12.999782705173143 23.19035333809502 16.04612277652402 15.902908839161258 13.228051992080822 16.05598156399862 21.73953050247322 14.465580493232894 18.80232874230944 22.50909029619602 20.27113502116582 20.883773615314357 23.39054530218664 22.94038858532187 17.28849635640737 21.591286633015017 12.01370860894491 15.851785326990099 23.673092792567047 15.844184288089918 23.681561633174297 17.164844734774615 17.628144383462946 13.162285092825108 25.53645100483926 17.914373118259416 17.54518163493863 12.8525102975027 9.37734699321803 19.209386045537137 18.5156623661255 13.150132294926093 12.89126087218307 24.767716543495354 25.42724924753955 15.092143063008358 22.406060445558857 18.581158120560893 24.249352509618692 27.50969189720214 22.99713408342089 20.66945343093483 14.434904099210717 15.078609373032613 10.434986118799038 15.047494343669202 22.75783335619697 16.826334381719114 16.402010962962105 18.293028033990968 18.785972800267743 24.313350075319054 21.834192821473405 13.19379273083306 10.261645098525607 8.778003850121694 10.951054330642776 13.56877355799724 21.811336280954897 16.404607320522096 11.04315288026426 25.185578236436996 18.97456674897404 25.84483728070837 24.567409655080706 18.462176373116588 15.170762854834436 21.28921757751458 16.126801108650426 13.640747039964273 21.883860499385726 23.551155740008753 19.791620858052745 18.898061977288986 15.041918624800735 9.132383759860069 9.95947442341184 21.35432250833295 22.329504311519003 19.35431349947431 19.565071476240302 12.810681999173502 21.48799587043927 21.243011955380258 12.67708095000539 9.960473316566729 18.18748646826169 16.34474133739937 10.571247006739046 23.138923047322475 23.728797488101794 22.825812201049697 13.731652540206596 22.003183481047223 21.888075535643374 17.92658520254918 15.741034762153559 23.285731609111355 23.426180595271102 19.820256848739888 25.29752737669607 23.637217515169382 24.2989329202681 26.209449312606623 28.25279057239574 26.02354492660374 14.04715588575689 19.620622725820517 14.673381272966349 20.2825548686055 15.388662138287632 16.963744743950308 16.985672486156925 22.778834625142864 18.13419175686357 14.853628576844148 16.217839265470754 12.452491032141316 20.00640936039684 13.002873431199022 20.711097108206683 21.0735560816865 13.802314859312487 14.932585333215316 21.959279187573433 12.155575782698461 14.154579436396602 25.346642186809675 11.022328006566863 11.266570516299145 13.465167920541376 19.720343880559717 10.601532201126995 14.303912349020898 17.12572162648068 20.51702367254013 26.48375309383939 20.19775440282498 22.36385883737026 16.127381737056663 21.984641106488517 12.421976760505103 9.691593051356008 10.87638712905142 13.204187031421196 13.80411245602017 22.93650155742872 15.692637392944869 12.524289692646626 18.644836354019663 23.068682937964873 16.968740526265115 12.737754198670322 18.989628491232832 19.79933261990131 11.369206182832293 16.532795979568153 12.175175171238713 24.802104691322974 20.188020787089513 15.178653759411947 24.10094443852702 13.570493633118504 13.87715843580876 12.627264631448579 21.459796745347294 15.637088175084948 18.866558545267647 25.04103853863215 15.817845429101153 12.224868668107622 17.47490113973525 23.96622114489666 26.459987535551413 24.84002319714684 11.138855977667987 15.973191944177573 23.769757262774792 11.815695203970382 13.464316121208356 10.857040016549695 18.181233897343542 15.096737916351207 9.994019957875482 16.710103933303095 23.326548554050422 18.330964570488206 19.86506238444514 9.976411832553124 13.937955015645429 13.817063213346456 21.31611365217798 19.832496010753378 9.229357130244566 18.8938658577468 20.12854699286285 22.367769720661475 21.84841586615074 11.975112625736733 13.823484509319213 9.68890504602059 11.774667621829312 25.74989454889121 23.670785586813803 23.604924784503723 24.199287487962614 26.091627682164194 15.356835586350499 9.692334677507475 13.929733043646243 11.811797116034162 10.456197166009929 10.714249008575665 16.95584272914499 16.6144883626038 15.804187703475417 23.0518074888835 14.921154222898315 14.414914176780064 9.966957832479164 18.59704289948607 19.640728007035637 16.356094903206188 16.317457459761332 22.179771616254143 20.427063019161277 23.65152591248298 12.273189668872229 19.365718376679485 19.531081095816713 17.419028823627723 11.66037644183432 23.547874824998367 17.609064757413524 24.928671157465413 12.08415505888126 25.40481755838352 23.988663153499292 18.01520418509972 26.121708208789254 19.312368406522562 10.7860583892722 24.526739381482493 23.881480138247124 22.386377173403197 10.044741076743053 17.59528170466137 12.433348995858868 8.747290673360553 21.56181029619837 24.17373079947731 24.258457261928477 18.711874101637 21.464200530831857 9.54659510296133 10.105793574828802 16.55628061507801 23.3698857692306 14.076440998937993 15.98387028599041 24.92812097049317 27.39478511098955 25.04898005482175 15.190313585830975 25.668942501513147 24.835877498607594 11.808394278839359 21.352766187488292 10.392701366533732 24.437954951490063 23.739835243770862 9.915030026271225 8.387069670248165 13.774289469864673 13.844090364935697 20.525915343315148 16.902908215531088 22.887247275082448 26.178086946577785 14.846176452197495 18.132187884024074 22.66058423623726 16.911539778503688 16.235258647999647 16.44653251943489 11.081775940821586 11.198102982462007 13.428696223125426 8.828334105798948 11.162648482666377 19.78375743797233 19.78400552967323 13.805376149773195 20.57495319976033 25.53755400928529 21.94294863246099 21.77599576305716 17.74618311926995 12.001359880838054 15.553271583877379 25.99695237496131 19.22380537426443 24.806507067868793 25.774422683433023 21.747191772522896 17.878552119947898 17.006225825304394 21.379385929666615 21.848990644855224 18.196885325992383 16.49615231356119 19.64381518588155 19.57845687685742 23.70064934236822 24.98041181873556 16.635195030850046 9.478278855563099 17.49107070142739 23.79716015071913 15.314293010419242 14.62125363070557 14.010512184334836 15.927275953009186 24.52347231205005 25.29524209444262 17.819088153282042 11.158054114246166 18.848491942866904 23.2337053170303 15.483850181725895 19.267776830201086 23.81182694477363 21.96222433998754 11.451741080928269 24.278718292935473 23.233844086679756 21.333280075898138 24.342957561255854 25.74987210786627 19.393307876337197 24.28995090036236 13.960665682034561 20.23868981964135 22.561239922481708 10.01786370744166 14.847784986782587 8.904160254610137 13.831898034989724 10.497558533897804 13.407725160001096 16.14792752071821 23.30033007210182 13.63522667410581 11.879561668669517 26.566654860225974 20.33677151281862 10.04441926148637 15.40857316827684 16.198594827594746 23.229125092576208 23.130679168269374 14.355375121194387 12.021693524976726 21.060795205833124 19.35477014138798 21.23359826586156 14.964086292160275 8.994840800989984 9.880992616722642 14.185260064493837 16.31471196815176 24.27313091872244 25.36101634810915 15.186803506469149 18.66929286321945 8.28256939815623 15.115356661589724 16.463608224747226 13.187875195311578 11.484273693662557 8.765296468131314 8.59186170128678 22.583212122293606 16.70578888944508 22.41217431764693 22.083264703739516 22.787088750177677 18.436956643879814 16.88828153565247 22.469695591546824 22.62923539095325 25.227125802246466 19.9858914445106 17.124598173070645 26.64990464496172 25.536738654962335 25.526808404876213 23.985459632020284 13.590285087090017 23.932558335105405 13.366221991624458 16.694207123046727 22.912227764394324 25.741382794441776 18.284793434647387 11.715404394154353 16.934348851937234 24.73961761591362 19.052511380595767 11.082110582010271 24.694479711793107 25.217977687785456 23.04212858433065 11.580965282200362 21.912689363946154 15.160457935391827 11.735383456203865 12.439901714846993 18.32979042316811 10.555806929697088 14.575366824011478 12.115430267870545 11.015798457030755 16.121319301328477 23.03095293340484 14.60999001615116 10.592950872295207 14.757096969629142 23.212410609278386 24.03420669463055 22.88485027808806 12.364397016306416 10.997856162732026 11.473244159635497 11.289785204892127 24.73250818319492 26.61618475498392 20.393373725669107 21.595107245541058 13.41264322547152 23.303401433660277 9.182357533076857 9.464804603783458 17.24414376119949 23.36771572555792 22.030155861189623 24.886004789369988 14.780692995951949 9.6556140276986 11.547242242567457 24.477174623989868 20.31963950531924 9.838012220618227 23.52185474136203 17.432558667477725 11.624361615020185 15.378841850501 13.712082675734546 11.60548869286111 9.244524800152334 12.17172835544314 12.220646553152442 23.886306995861535 19.723346941841726 26.837014210750365 25.140810894213516 18.246876946815952 20.216542395778543 14.322880126050768 16.382197500003155 13.604955982171468 12.689660023972031 9.707649979864538 19.794545645315967 23.50878471173215 18.50262869283589 22.207307046937782 13.938285934390391 16.764079047659532 22.203905338035636 22.4715944562035 15.41760363801623 16.857712119464733 19.300646630482984 13.14870630998405 17.378282894588903 11.39446953113098 25.542964140863116 22.39376908323165 9.856668770514833 16.020909436436963 9.767381058076452 13.23310185996514 25.961531008048844 19.126979741595708 11.279812384693546 20.205839819750658 13.69759919754981 17.5925626561743 21.12665261507743 17.950097999616 19.58655765837804 26.64450650192012 18.759955624220368 21.69451341848006 9.080480481102024 8.147644797319618 14.718794855364699 22.919496074047327 17.933880807097022 21.217724414800557 18.222511019221372 23.78279577772188 13.011471413281969 24.169715935370654 12.991026950315115 19.425632798386275 24.146844053924827 11.824480661801799 13.153609651325125 16.747045014897875 21.67968736461197 16.18269716394495 25.16295480472557 17.746371239498234 20.5989718660938 17.538615239910005 18.211328203794952 24.71047077637828 24.75545498161402 21.507545528219204 10.393447789671523 10.048080315053722 18.673807213240583 15.309159423267163 11.460373768617167 22.48840541569944 19.543260888343383 25.238155674565874 19.970006494113566 17.410725726671952 24.329452114967253 26.843610131365057 19.24521858228988 12.279535914896252 23.597208776169634 12.365685469201066 17.01490602032874 16.45399238012239 20.25301585982084 22.762453754134437 14.566406499327849 14.607792535271344 14.065880263566951 25.81253694466732 16.7735580884824 10.331243294350507 14.513871013779163 12.44530056081137 9.881001688729924 19.079324127617397 23.715827207503956 24.118806903932878 21.66644485593578 17.312468567313914 10.633490077901591 23.407335665847512 20.218070643800395 22.17645644994663 10.323964748305203 20.222039262089776 11.825495180181413 23.24622604896917 21.256673603002948 17.8459391429721 13.783928220505821 13.478377489917271 8.889244656726476 17.25265583294474 10.017416954701934 9.107555920212445 9.130381494866796 14.181096479489561 12.829470995531677 25.891179428180404 22.87994587091217 22.04334091338379 23.52324419655039 11.613779674523224 19.426564970629375 17.50128529383431 14.8422526324477 13.884020455142208 9.655040164552439 21.984353320642665 25.324782211723555 26.10726989088653 26.212623546939756 22.80720253287699 17.06493276638494 14.698211985882423 19.407367488707806 25.56330256408178 23.69570871051685 12.386991959129046 21.999628673693415 23.70240215198105 27.210643129057505 25.210300402113972 15.732691111223994 17.231233362841188 13.589405965294564 13.86536498777576 10.81058328313798 21.150043631018583 16.882348296656186 12.893984838779788 19.683450933434287 13.392838879649018 20.965443169378613 20.746062328571487 9.43333458758977 7.64748253072755 19.023018847588837 16.967220429910025 13.905356085821936 16.3453709098594 13.374152247414694 23.245875529707533 22.172699305718876 11.377671550345005 20.082723772548352 13.804964544682429 19.31867798940609 13.740455682982486 21.36810796272782 22.273287000756856 12.87184725393666 14.632128564446797 19.611063487716525 18.522210735246155 22.60926273112376 9.450075066615385 18.650845263248154 14.488857093968688 26.656373240471687 22.175213785906312 20.510319286615644 15.104216291363525 14.346975177284573 16.215331834172297 16.779387410590743 9.675936169014493 21.90938543297721 14.694829100592374 13.270057644518298 22.64673204799944 21.639123234304826 21.841905797061333 11.691233338808376 15.851032476769793 23.222486200149035 14.193090508660102 19.777803469061904 18.307231815618156 17.02143239131209 17.28340616258557 13.47403258003701 9.184061633243081 11.845596666710476 14.858884084004774 19.17252681317445 24.468821467844887 24.37229627517731 26.85055915760492 23.314781807483428 26.27749683935137 12.374735241247187 23.398587689804792 20.705573032004786 25.81929398690882 23.74455714312205 24.302716447090408 10.538154800487542 24.00603479367549 25.353250982386317 21.995049354579404 25.195690496478548 18.21526910707405 8.418869039591355 19.384847840541795 15.055063581111323 20.090963084938625 24.951660047325138 17.654041990136303 13.751578204826227 13.884648028938816 20.719935244929044 25.76885064958867 19.574125361345246 18.780612729678534 12.308086636907397 26.832265583513944 17.776991533302716 17.648985823866504 11.44066352473186 14.95033271328983 13.901148183797712 25.603450615985324 25.140644495202388 11.085032845607712 19.428398320781422 21.0394254359413 17.52730848031997 13.481859938193788 24.33983625943564 24.894563155457213 19.520218437926964 17.805616178175946 13.491572887638542 15.771862375684426 13.66381427545158 22.610317050064474 15.184650852140644 18.887824025729323 17.748439892242676 14.065333537007866 14.373684093909093 17.20273474692571 23.736605149213762 24.045378488176116 20.018086500635004 12.40712331172422 23.186500949222904 19.297644926071303 18.171830076164206 13.334071257572948 10.570452113957774 15.31673459746953 17.76697785871749 19.55329405737002 24.831557876974934 21.460132894982785 20.863486779857297 14.80549711406093 15.714233015358792 22.04622384949248 12.13941380690352 19.48283156810211 19.118423565993957 23.31646404804504 21.17695769922978 16.49549126344527 17.200099010467092 16.60084293187541 23.84998385061207 20.05226900768781 17.419387383395023 10.507490875492719 10.129300754647703 22.25005876797794 14.073831016084839 12.599821547142012 20.562211721245127 11.536274072677099 19.304788370039695 23.19330249309278 26.86097734848525 23.501904331885843 20.71288025757099 18.337784183464475 25.564911791041034 24.752971096023042 22.083639939907833 15.517210752091433 10.222742982751283 8.540212664819315 12.530230256189746 16.492048963949895 14.98185807510674 22.480032752083194 18.368327468092733 9.639826939701024 14.73630743174625 25.652878662027494 24.05358978474237 17.83758082447561 23.779026605612415 21.41611770396061 12.739923664089957 21.342387152721887 22.816259412642715 13.462646841229658 12.246258585771573 11.040947893345944 10.196885332849245 22.354212242320454 26.277772069351958 15.748501781976056 13.641934116793413 15.588137388000598 16.821484740197935 11.660727525926033 13.701488473856223 24.216999633383722 23.937645368583357 18.149373846139802 17.87591458938651 25.43591126826954 25.562494350358392 11.046547399598188 13.121034517154992 13.836783753503804 17.672647006169203 15.520277039339685 8.30243788848709 15.164266148882087 25.09216596671807 20.150962534227382 23.175533014793746 13.852703127216223 8.0966202176201 10.982737378028796 13.667998015290198 20.79473510584749 19.20070299535929 21.244487266912653 17.47430610818421 17.800602347681114 21.107230691563977 19.364108313910577 11.931532854674993 18.87248092934725 24.41629412392721 16.84366835833265 23.784072810124194 13.338038327261785 17.150736831146062 10.065476045671508 9.377943678810649 22.9229935661981 19.39147010928155 13.703131014649191 24.258370467700445 15.667299869566893 25.905666976828634 24.41817111848541 24.5463468498773 20.112450843420664 13.49491467002342 19.278820920331853 24.643915373900604 20.111386182201386 21.057855702959255 23.41745225020624 19.157258101467093 21.549094710395273 14.78298682845562 21.619846330724524 22.53092651201596 10.305427310270533 13.712416057657379 12.578074991271096 25.840368677779523 26.091317932990457 17.02302656327093 17.210705607694255 16.15970731334552 16.378825352159897 20.72457764884278 25.326637503211778 22.83627563815702 23.629952061154388 13.532165741395245 13.411564807207402 20.774310943387235 26.28493864102412 14.114994623048366 15.310504190919938 9.090400127999395 11.731476403799695 20.627570783450025 19.577586234293516 11.799384775522135 19.313882968694422 10.9305618076523 20.790629879373643 23.692403058040945 22.62550443354297 14.078325605972596 23.95374193923872 14.479945763480004 18.47607159523158 26.361026389352638 15.324300343675075 24.58883837872571 25.08003866259959 23.489636017160652 20.68992858316506 11.550822015152585 15.89692772546031 17.87365753750015 26.27485395510956 18.191405259287162 12.823352580064354 11.664604620617432 15.091360638202284 23.867792549346117 20.352692181786033 13.025692692854498 18.524984453199508 23.103739785481356 21.60432766573041 11.54456668477483 15.772523462804594 22.360762400048127 11.91172233984434 12.366181766373929 19.35411686544623 12.147045676207963 22.95403073003517 8.209777392905488 9.563626756339765 21.59195529802151 25.816032486434068 20.9977648010014 20.52962354812546 25.557932684053753 19.789345929970366 12.382711257111099 16.82629361715918 22.483574267983084 13.446834975206965 19.435827878410915 9.758963638030568 13.067706281679605 14.941658036314328 19.121430934169144 15.874592385847723 24.03663305195617 22.094627002248046 13.566882735129967 20.455996450861566 16.598727085610403 21.698355718038535 20.561563333279253 26.17461051863049 26.929952164466535 23.9280038461525 16.852177782603704 14.274609715310516 21.411491666391413 22.040072428715888 21.790357577494863 19.248547480756965 25.579077072084498 19.54561061517139 24.798809583329163 13.789780455865305 17.612005162087335 23.407941376137153 13.22692476946 14.445111589926734 10.961547831931103 19.19656781610003 20.69021758113413 23.322321377691487 22.905780517982173 11.952206210340165 14.838271450897441 14.556876199187373 17.989493533009252 18.496199404605907 15.309926018903822 23.410071797956288 24.144697086457043 16.56244330900066 11.446879741698472 24.21913063053621 11.589963718520353 18.845082570173126 9.581483823401744 21.894346661381295 18.020